 Gaussian 16, Revision A.03,
 Gaussian 16:  ES64L-G16RevA.03 25-Dec-2016

 --------------------------------------------------------------
 #opt freq wb97xd def2svp scf=xqc scrf=(smd,solvent=2-propanol)
 --------------------------------------------------------------

 ----------
 [No Title]
 ----------
 Symbolic Z-matrix:
 Charge =  0 Multiplicity = 1

 SCF Done:  E(RwB97XD) =  -1371.55853673     A.U. after   14 cycles
 SCF Done:  E(RwB97XD) =  -1371.55912328     A.U. after   11 cycles
 SCF Done:  E(RwB97XD) =  -1371.55915961     A.U. after   10 cycles
 SCF Done:  E(RwB97XD) =  -1371.55913743     A.U. after   10 cycles
 SCF Done:  E(RwB97XD) =  -1371.55913130     A.U. after   10 cycles
 SCF Done:  E(RwB97XD) =  -1371.55915731     A.U. after   10 cycles
 SCF Done:  E(RwB97XD) =  -1371.55915788     A.U. after   10 cycles
 SCF Done:  E(RwB97XD) =  -1371.55916082     A.U. after    9 cycles
 SCF Done:  E(RwB97XD) =  -1371.55915768     A.U. after    9 cycles
 SCF Done:  E(RwB97XD) =  -1371.55915538     A.U. after    6 cycles
 SCF Done:  E(RwB97XD) =  -1371.55915978     A.U. after    9 cycles
 SCF Done:  E(RwB97XD) =  -1371.55915594     A.U. after   10 cycles
 SCF Done:  E(RwB97XD) =  -1371.55915946     A.U. after    9 cycles
 SCF Done:  E(RwB97XD) =  -1371.55915729     A.U. after    9 cycles
 SCF Done:  E(RwB97XD) =  -1371.55915960     A.U. after    9 cycles
 SCF Done:  E(RwB97XD) =  -1371.55915977     A.U. after    7 cycles
 Optimization completed.
    -- Stationary point found.
 Normal termination of Gaussian 16 at Fri Jan 14 16:21:34 2022.

 --------------------------------------------------------------------
 #N Geom=AllCheck Guess=TCheck SCRF=Check GenChk RwB97XD/def2SVP Freq
 --------------------------------------------------------------------

 Structure from the checkpoint file:  "hhtc_smd.chk"
 ----------
 [No Title]
 ----------
 Charge =  0 Multiplicity = 1

                         Standard orientation:
 ---------------------------------------------------------------------
 Center     Atomic      Atomic             Coordinates (Angstroms)
 Number     Number       Type             X           Y           Z
 ---------------------------------------------------------------------
      1          6           0        0.087631    4.223788    0.000424
      2          6           0       -0.181156    2.844928    0.000642
      3          6           0       -1.523718    2.399127    0.000277
      4          6           0       -2.562404    3.345778   -0.000317
      5          6           0       -2.284123    4.703885   -0.000535
      6          6           0       -0.945274    5.151102   -0.000159
      7          6           0        0.896002    1.901816    0.001332
      8          6           0        1.800124    1.089467    0.001800
      9          6           0        2.854668    0.121928    0.000801
     10          6           0        4.195616    0.543051    0.000302
     11          6           0        5.229750   -0.381284   -0.000495
     12          6           0        4.942204   -1.763341   -0.000782
     13          6           0        3.620940   -2.188480   -0.000274
     14          6           0        2.564681   -1.262644    0.000498
     15          6           0        1.208832   -1.722573    0.001058
     16          6           0        0.054765   -2.103630    0.001395
     17          6           0       -1.309779   -2.536778    0.000737
     18          6           0       -1.614825   -3.907871    0.000517
     19          6           0       -2.932327   -4.344540   -0.000046
     20          6           0       -3.980373   -3.399210   -0.000417
     21          6           0       -3.692592   -2.042700   -0.000209
     22          6           0       -2.361656   -1.590923    0.000374
     23          6           0       -1.829805    1.001382    0.000489
     24          6           0       -2.080761   -0.187941    0.000524
     25          8           0       -3.218897    5.676494   -0.001094
     26          8           0       -0.671609    6.467849   -0.000356
     27          8           0        6.540685   -0.062680   -0.001031
     28          8           0        5.939493   -2.665671   -0.001532
     29          8           0       -3.207479   -5.660880   -0.000239
     30          8           0       -5.225795   -3.917477   -0.000997
     31          1           0        1.117887    4.583953    0.000723
     32          1           0       -3.603042    3.013572   -0.000613
     33          1           0        4.431403    1.609617    0.000556
     34          1           0        3.413401   -3.260012   -0.000487
     35          1           0       -0.814442   -4.649994    0.000809
     36          1           0       -4.513426   -1.321896   -0.000509
     37          1           0       -4.110770    5.303061   -0.001327
     38          1           0       -1.505403    6.961662   -0.000760
     39          1           0        6.668626    0.895478   -0.000648
     40          1           0        6.789722   -2.201005   -0.001748
     41          1           0       -4.168877   -5.782306   -0.000591
     42          1           0       -5.894781   -3.219218   -0.001035
 ---------------------------------------------------------------------

 SCF Done:  E(RwB97XD) =  -1371.55915977     A.U. after    1 cycles

 The electronic state is 1-A.
 Alpha  occ. eigenvalues --  -19.29904 -19.29895 -19.29850 -19.29159 -19.29128
 Alpha  occ. eigenvalues --  -19.29121 -10.37214 -10.37209 -10.37199 -10.37024
 Alpha  occ. eigenvalues --  -10.37002 -10.36998 -10.33787 -10.33769 -10.33749
 Alpha  occ. eigenvalues --  -10.33739 -10.33722 -10.33710 -10.31473 -10.31470
 Alpha  occ. eigenvalues --  -10.31446 -10.31253 -10.31236 -10.31209 -10.31172
 Alpha  occ. eigenvalues --  -10.31146 -10.31128 -10.31028 -10.31011 -10.30988
 Alpha  occ. eigenvalues --   -1.17868  -1.17850  -1.17799  -1.14800  -1.14779
 Alpha  occ. eigenvalues --   -1.14757  -0.97603  -0.97144  -0.97126  -0.89141
 Alpha  occ. eigenvalues --   -0.88783  -0.88740  -0.86548  -0.86464  -0.86305
 Alpha  occ. eigenvalues --   -0.82263  -0.82196  -0.80508  -0.75759  -0.75160
 Alpha  occ. eigenvalues --   -0.74338  -0.74058  -0.72454  -0.71502  -0.67579
 Alpha  occ. eigenvalues --   -0.66823  -0.65880  -0.65654  -0.65107  -0.64967
 Alpha  occ. eigenvalues --   -0.60909  -0.60744  -0.60113  -0.59578  -0.59152
 Alpha  occ. eigenvalues --   -0.58454  -0.54093  -0.53963  -0.53934  -0.53603
 Alpha  occ. eigenvalues --   -0.53170  -0.53005  -0.52630  -0.52381  -0.52148
 Alpha  occ. eigenvalues --   -0.50529  -0.50252  -0.50221  -0.48525  -0.47444
 Alpha  occ. eigenvalues --   -0.47232  -0.47220  -0.47165  -0.47161  -0.47103
 Alpha  occ. eigenvalues --   -0.46473  -0.46381  -0.44384  -0.44347  -0.44306
 Alpha  occ. eigenvalues --   -0.40139  -0.40047  -0.37628  -0.36645  -0.35911
 Alpha  occ. eigenvalues --   -0.35895  -0.34452  -0.32611  -0.32339  -0.29182
 Alpha  occ. eigenvalues --   -0.28957  -0.25513
 Alpha virt. eigenvalues --   -0.01683   0.02792   0.02820   0.06170   0.07674
 Alpha virt. eigenvalues --    0.07706   0.10529   0.10538   0.12726   0.14500
 Alpha virt. eigenvalues --    0.14634   0.14801   0.15982   0.16782   0.17305

 Mulliken charges:
               1
     1  C   -0.116378
     2  C   -0.012593
     3  C   -0.024225
     4  C   -0.114375
     5  C    0.143530
     6  C    0.129987
     7  C   -0.040580
     8  C   -0.036672
     9  C   -0.023859
    10  C   -0.113853
    11  C    0.143091
    12  C    0.130637
    13  C   -0.115995
    14  C   -0.013495
    15  C   -0.039281
    16  C   -0.038404
    17  C   -0.013529
    18  C   -0.115578
    19  C    0.130235
    20  C    0.142863
    21  C   -0.114213
    22  C   -0.023666
    23  C   -0.039032
    24  C   -0.038249
    25  O   -0.251260
    26  O   -0.226124
    27  O   -0.251088
    28  O   -0.226210
    29  O   -0.226010
    30  O   -0.251190
    31  H    0.038099
    32  H    0.040241
    33  H    0.040957
    34  H    0.038673
    35  H    0.038770
    36  H    0.040235
    37  H    0.245201
    38  H    0.224193
    39  H    0.245084
    40  H    0.224467
    41  H    0.224428
    42  H    0.245166
 Sum of Mulliken charges =   0.00000

 Dipole moment (field-independent basis, Debye):
    X=             -5.0850    Y=              4.5249    Z=             -0.0055  Tot=              6.8068
 Quadrupole moment (field-independent basis, Debye-Ang):
   XX=            -68.2968   YY=           -151.5788   ZZ=           -176.0349
   XY=              4.5306   XZ=              0.0124   YZ=             -0.0067

  Exact polarizability: 634.730   0.213 630.348   0.018  -0.008 152.678
 Approx polarizability: 458.039  -0.067 460.231   0.014  -0.007 143.396

                      1                      2                      3
                      A                      A                      A
 Frequencies --     31.3820                36.7174                40.2367
 Red. masses --      6.1968                 6.5992                 8.4154
 Frc consts  --      0.0036                 0.0052                 0.0080
 IR Inten    --      0.0068                12.1817                 2.0128

                      4                      5                      6
                      A                      A                      A
 Frequencies --     68.3364                70.2278                75.2003
 Red. masses --      6.2050                 7.6183                 7.6354
 Frc consts  --      0.0171                 0.0221                 0.0254
 IR Inten    --      2.5745                 2.2670                 2.3898

                      7                      8                      9
                      A                      A                      A
 Frequencies --    102.8674               107.1493               166.6198
 Red. masses --      7.9445                 8.8718                 7.7991
 Frc consts  --      0.0495                 0.0600                 0.1276
 IR Inten    --      1.8051                 0.1056                 2.3222

                     10                     11                     12
                      A                      A                      A
 Frequencies --    178.0962               179.6232               188.8110
 Red. masses --      7.1415                 7.7748                 9.4461
 Frc consts  --      0.1335                 0.1478                 0.1984
 IR Inten    --      5.7729                 1.7917                 0.2165

                     13                     14                     15
                      A                      A                      A
 Frequencies --    189.3165               226.2232               245.6805
 Red. masses --      9.3286                 5.6285                 4.3947
 Frc consts  --      0.1970                 0.1697                 0.1563
 IR Inten    --      0.1080                 1.6418                28.1516

                     16                     17                     18
                      A                      A                      A
 Frequencies --    252.4490               278.9151               291.8893
 Red. masses --      8.6443                 1.4976                 5.0825
 Frc consts  --      0.3246                 0.0686                 0.2551
 IR Inten    --      0.3281                32.6872                 7.0488

                     19                     20                     21
                      A                      A                      A
 Frequencies --    295.8958               302.8886               309.9987
 Red. masses --      1.3677                 5.9781                 2.2929
 Frc consts  --      0.0706                 0.3231                 0.1298
 IR Inten    --    546.7823                27.2976                 1.4742

                     22                     23                     24
                      A                      A                      A
 Frequencies --    311.4490               315.5429               348.5254
 Red. masses --      5.2695                 5.2752                 1.1402
 Frc consts  --      0.3012                 0.3095                 0.0816
 IR Inten    --      6.7884                 4.9270               310.2380

                     25                     26                     27
                      A                      A                      A
 Frequencies --    378.6497               381.8880               389.9678
 Red. masses --      1.2629                 1.4410                 3.8034
 Frc consts  --      0.1067                 0.1238                 0.3408
 IR Inten    --      4.3534                43.8124                16.3979

                     28                     29                     30
                      A                      A                      A
 Frequencies --    392.1841               396.2639               402.9086
 Red. masses --      2.7495                 6.8461                 7.1652
 Frc consts  --      0.2492                 0.6334                 0.6853
 IR Inten    --      2.7124                 2.9996                14.9755

                     31                     32                     33
                      A                      A                      A
 Frequencies --    428.0080               432.6079               435.7360
 Red. masses --     11.3088                 1.0797                 7.1324
 Frc consts  --      1.2206                 0.1191                 0.7979
 IR Inten    --      0.1406                40.1053                10.0048

                     34                     35                     36
                      A                      A                      A
 Frequencies --    462.7137               464.6229               465.4547
 Red. masses --      3.8328                 3.4452                 3.2731
 Frc consts  --      0.4835                 0.4382                 0.4178
 IR Inten    --      0.4315                 0.6534                 0.7112

                     37                     38                     39
                      A                      A                      A
 Frequencies --    491.3022               492.5805               498.6131
 Red. masses --      8.5488                 9.9445                 9.5715
 Frc consts  --      1.2158                 1.4216                 1.4020
 IR Inten    --      6.0126                 0.0798                44.5920

                     40                     41                     42
                      A                      A                      A
 Frequencies --    499.8291               501.5904               548.8623
 Red. masses --      9.5627                 5.4131                10.0585
 Frc consts  --      1.4076                 0.8024                 1.7853
 IR Inten    --     43.1585                 3.7436                16.2268

                     43                     44                     45
                      A                      A                      A
 Frequencies --    551.0281               573.3541               574.6385
 Red. masses --      9.7537                 8.6534                 8.6359
 Frc consts  --      1.7449                 1.6760                 1.6802
 IR Inten    --     10.1374                 0.0046                 0.0103

                     46                     47                     48
                      A                      A                      A
 Frequencies --    637.5412               638.6706               674.7401
 Red. masses --      8.3786                 8.3263                 4.8627
 Frc consts  --      2.0065                 2.0010                 1.3044
 IR Inten    --      0.0183                 4.9767                17.6313

                     49                     50                     51
                      A                      A                      A
 Frequencies --    678.8570               693.9452               697.0760
 Red. masses --      4.8691                 6.7667                 5.3223
 Frc consts  --      1.3221                 1.9199                 1.5237
 IR Inten    --     35.6636                 2.7884                22.6014

                     52                     53                     54
                      A                      A                      A
 Frequencies --    711.2498               711.8580               713.7983
 Red. masses --      7.6601                 7.6581                 6.6682
 Frc consts  --      2.2831                 2.2864                 2.0018
 IR Inten    --      0.0103                 0.0012                 0.0253

                     55                     56                     57
                      A                      A                      A
 Frequencies --    740.5237               740.6335               746.4889
 Red. masses --      5.3700                 5.3934                 6.1356
 Frc consts  --      1.7350                 1.7431                 2.0144
 IR Inten    --      0.4378                 0.6539                 0.1407

                     58                     59                     60
                      A                      A                      A
 Frequencies --    751.5567               781.7378               782.6891
 Red. masses --      9.0833                 7.4003                 7.3946
 Frc consts  --      3.0228                 2.6645                 2.6690
 IR Inten    --      1.0218                 5.7024                 6.8125

                     61                     62                     63
                      A                      A                      A
 Frequencies --    843.8894               887.3494               889.0841
 Red. masses --      4.4692                 1.4194                 1.4119
 Frc consts  --      1.8752                 0.6585                 0.6576
 IR Inten    --      1.7138                 5.4605                 3.8927

                     64                     65                     66
                      A                      A                      A
 Frequencies --    890.4037               895.3819               899.2601
 Red. masses --      1.4169                 3.5177                 3.6047
 Frc consts  --      0.6619                 1.6616                 1.7175
 IR Inten    --      6.7472               104.5767               128.9457

                     67                     68                     69
                      A                      A                      A
 Frequencies --    916.2262               917.0290               919.2786
 Red. masses --      1.4447                 1.4438                 1.4407
 Frc consts  --      0.7145                 0.7153                 0.7173
 IR Inten    --     54.6684                68.2896                68.7817

                     70                     71                     72
                      A                      A                      A
 Frequencies --   1089.5421              1091.8872              1161.8533
 Red. masses --      4.7396                 5.0324                 1.4847
 Frc consts  --      3.3150                 3.5349                 1.1808
 IR Inten    --      9.7108                14.0638               352.4140

                     73                     74                     75
                      A                      A                      A
 Frequencies --   1165.7273              1175.7107              1184.9745
 Red. masses --      1.5708                 1.5210                 1.4300
 Frc consts  --      1.2576                 1.2387                 1.1831
 IR Inten    --      5.9296               266.6067               183.1149

                     76                     77                     78
                      A                      A                      A
 Frequencies --   1186.4573              1200.2535              1210.4529
 Red. masses --      1.7094                 1.3650                 1.4557
 Frc consts  --      1.4178                 1.1586                 1.2567
 IR Inten    --    425.6094               192.7730               113.5661

                     79                     80                     81
                      A                      A                      A
 Frequencies --   1237.2256              1241.2051              1246.6536
 Red. masses --      1.8539                 1.6656                 1.6697
 Frc consts  --      1.6720                 1.5118                 1.5289
 IR Inten    --      6.5707                47.8548                69.4255

                     82                     83                     84
                      A                      A                      A
 Frequencies --   1259.4156              1264.6367              1270.8215
 Red. masses --      4.7289                 1.9172                 1.8132
 Frc consts  --      4.4193                 1.8066                 1.7253
 IR Inten    --     11.1880                37.7651               192.1534

                     85                     86                     87
                      A                      A                      A
 Frequencies --   1338.9004              1344.7499              1351.9818
 Red. masses --      3.3965                 4.2412                 6.6726
 Frc consts  --      3.5873                 4.5188                 7.1860
 IR Inten    --    974.9334               449.5058               293.6309

                     88                     89                     90
                      A                      A                      A
 Frequencies --   1357.2873              1363.4300              1372.0951
 Red. masses --      2.6441                 3.2054                 2.4431
 Frc consts  --      2.8699                 3.5108                 2.7099
 IR Inten    --    117.5434                11.8393               171.7146

                     91                     92                     93
                      A                      A                      A
 Frequencies --   1402.4372              1437.8929              1453.0504
 Red. masses --      3.9176                 6.6290                 4.5321
 Frc consts  --      4.5398                 8.0752                 5.6378
 IR Inten    --     41.3363               482.8830                75.1779

                     94                     95                     96
                      A                      A                      A
 Frequencies --   1497.3174              1509.6924              1528.0861
 Red. masses --      7.0768                 5.4675                 6.8026
 Frc consts  --      9.3479                 7.3420                 9.3589
 IR Inten    --    142.0345                31.5846                37.7316

                     97                     98                     99
                      A                      A                      A
 Frequencies --   1579.1689              1588.8264              1590.5599
 Red. masses --      4.9322                 5.0477                 5.0482
 Frc consts  --      7.2469                 7.5075                 7.5246
 IR Inten    --     79.9199               930.8463               865.0585

                    100                    101                    102
                      A                      A                      A
 Frequencies --   1656.9433              1658.2589              1659.8036
 Red. masses --      7.5161                 7.5078                 7.3385
 Frc consts  --     12.1579                12.1638                11.9117
 IR Inten    --    195.4154               327.4607                18.5186

                    103                    104                    105
                      A                      A                      A
 Frequencies --   1699.9343              1701.0517              1704.0215
 Red. masses --      7.4564                 7.4656                 7.4995
 Frc consts  --     12.6953                12.7278                12.8302
 IR Inten    --    112.9443               139.5229                 6.0091

                    106                    107                    108
                      A                      A                      A
 Frequencies --   2352.6823              2354.0725              2355.2428
 Red. masses --     11.9980                11.9988                11.9990
 Frc consts  --     39.1278                39.1768                39.2164
 IR Inten    --      2.1741                12.2342                 9.7738

                    109                    110                    111
                      A                      A                      A
 Frequencies --   3216.7334              3219.4073              3219.6366
 Red. masses --      1.0946                 1.0945                 1.0946
 Frc consts  --      6.6732                 6.6840                 6.6851
 IR Inten    --      4.5220                 4.7503                 4.3615

                    112                    113                    114
                      A                      A                      A
 Frequencies --   3231.3076              3231.4384              3231.7298
 Red. masses --      1.0945                 1.0945                 1.0945
 Frc consts  --      6.7333                 6.7335                 6.7348
 IR Inten    --      4.0135                 4.0135                 3.8912

                    115                    116                    117
                      A                      A                      A
 Frequencies --   3809.1209              3811.1620              3812.3134
 Red. masses --      1.0657                 1.0655                 1.0658
 Frc consts  --      9.1105                 9.1183                 9.1268
 IR Inten    --    427.1127               389.4360               392.4273

                    118                    119                    120
                      A                      A                      A
 Frequencies --   3848.5054              3851.1512              3860.4465
 Red. masses --      1.0669                 1.0669                 1.0661
 Frc consts  --      9.3106                 9.3228                 9.3614
 IR Inten    --    405.0413               352.5515               387.2525

 - Thermochemistry -
 -------------------
 Temperature   298.150 Kelvin.  Pressure   1.00000 Atm.
 Atom     1 has atomic number  6 and mass  12.00000

 Molecular mass:   396.06339 amu.
 Principal axes and moments of inertia in atomic units:
                           1         2         3
     Eigenvalues --  ******************************
           X            0.77624   0.63044   0.00001
           Y           -0.63044   0.77624  -0.00000
           Z           -0.00001  -0.00001   1.00000
 This molecule is an asymmetric top.
 Rotational symmetry number  1.
 Warning -- assumption of classical behavior for rotation
           may cause significant error
 Rotational temperatures (Kelvin)      0.00560     0.00559     0.00280
 Rotational constants (GHZ):           0.11667     0.11657     0.05831
 Zero-point vibrational energy     791469.5 (Joules/Mol)
                                  189.16575 (Kcal/Mol)
 Warning -- explicit consideration of  45 degrees of freedom as
           vibrations may cause significant error
 Vibrational temperatures:     45.15    52.83    57.89    98.32   101.04
          (Kelvin)            108.20   148.00   154.16   239.73   256.24
                              258.44   271.66   272.38   325.48   353.48
                              363.22   401.30   419.96   425.73   435.79
                              446.02   448.11   454.00   501.45   544.79
                              549.45   561.08   564.27   570.14   579.70
                              615.81   622.43   626.93   665.74   668.49
                              669.69   706.87   708.71   717.39   719.14
                              721.68   789.69   792.81   824.93   826.78
                              917.28   918.90   970.80   976.72   998.43
                             1002.94  1023.33  1024.20  1027.00  1065.45
                             1065.61  1074.03  1081.32  1124.75  1126.12
                             1214.17  1276.70  1279.19  1281.09  1288.25
                             1293.83  1318.25  1319.40  1322.64  1567.61
                             1570.98  1671.65  1677.22  1691.59  1704.91
                             1707.05  1726.90  1741.57  1780.09  1785.82
                             1793.66  1812.02  1819.53  1828.43  1926.38
                             1934.80  1945.20  1952.83  1961.67  1974.14
                             2017.79  2068.81  2090.62  2154.31  2172.11
                             2198.58  2272.07  2285.97  2288.46  2383.97
                             2385.86  2388.09  2445.83  2447.43  2451.71
                             3384.99  3386.99  3388.67  4628.16  4632.01
                             4632.34  4649.13  4649.32  4649.74  5480.48
                             5483.41  5485.07  5537.14  5540.95  5554.32

 Zero-point correction=                           0.301455 (Hartree/Particle)
 Thermal correction to Energy=                    0.326323
 Thermal correction to Enthalpy=                  0.327267
 Thermal correction to Gibbs Free Energy=         0.247691
 Sum of electronic and zero-point Energies=          -1371.257705
 Sum of electronic and thermal Energies=             -1371.232837
 Sum of electronic and thermal Enthalpies=           -1371.231893
 Sum of electronic and thermal Free Energies=        -1371.311469

                     E (Thermal)             CV                S
                      KCal/Mol        Cal/Mol-Kelvin    Cal/Mol-Kelvin
 Total                  204.771             98.949            167.482
 Electronic               0.000              0.000              0.000
 Translational            0.889              2.981             43.821
 Rotational               0.889              2.981             37.248
 Vibrational            202.993             92.988             86.414
 Vibration     1          0.594              1.983              5.740
 Vibration     2          0.594              1.982              5.429
 Vibration     3          0.594              1.981              5.247
 Vibration     4          0.598              1.969              4.201
 Vibration     5          0.598              1.968              4.147
 Vibration     6          0.599              1.966              4.012
 Vibration     7          0.605              1.947              3.399
 Vibration     8          0.606              1.944              3.320
 Vibration     9          0.624              1.884              2.473
 Vibration    10          0.629              1.869              2.348
 Vibration    11          0.629              1.867              2.332
 Vibration    12          0.633              1.855              2.239
 Vibration    13          0.633              1.855              2.235
 Vibration    14          0.650              1.801              1.909
 Vibration    15          0.660              1.770              1.761
 Vibration    16          0.664              1.759              1.713
 Vibration    17          0.679              1.713              1.540
 Vibration    18          0.687              1.689              1.463
 Vibration    19          0.690              1.681              1.440
 Vibration    20          0.694              1.668              1.401
 Vibration    21          0.699              1.655              1.362
 Vibration    22          0.700              1.652              1.355
 Vibration    23          0.703              1.644              1.333
 Vibration    24          0.726              1.578              1.173
 Vibration    25          0.749              1.516              1.045
 Vibration    26          0.751              1.509              1.032
 Vibration    27          0.758              1.492              1.000
 Vibration    28          0.760              1.487              0.992
 Vibration    29          0.763              1.478              0.976
 Vibration    30          0.768              1.464              0.952
 Vibration    31          0.790              1.409              0.865
 Vibration    32          0.793              1.399              0.850
 Vibration    33          0.796              1.392              0.840
 Vibration    34          0.820              1.333              0.758
 Vibration    35          0.822              1.329              0.753
 Vibration    36          0.823              1.327              0.750
 Vibration    37          0.847              1.269              0.680
 Vibration    38          0.848              1.266              0.677
 Vibration    39          0.854              1.253              0.662
 Vibration    40          0.855              1.250              0.659
 Vibration    41          0.857              1.246              0.654
 Vibration    42          0.904              1.142              0.547
 Vibration    43          0.906              1.137              0.542
 Vibration    44          0.930              1.089              0.498
 Vibration    45          0.931              1.086              0.495

                           ! Non-Optimized Parameters !
 Normal termination of Gaussian 16 at Fri Jan 14 16:30:41 2022.
