 Gaussian 16, Revision A.03,
 Gaussian 16:  ES64L-G16RevA.03 25-Dec-2016

 --------------------------------
 #opt freq wb97xd def2svp scf=xqc
 --------------------------------

 ----------
 [No Title]
 ----------
 Symbolic Z-matrix:
 Charge =  0 Multiplicity = 1

 SCF Done:  E(RwB97XD) =  -1143.31076879     A.U. after   16 cycles
 SCF Done:  E(RwB97XD) =  -1143.31544712     A.U. after   12 cycles
 SCF Done:  E(RwB97XD) =  -1143.31556965     A.U. after   11 cycles
 SCF Done:  E(RwB97XD) =  -1143.31556770     A.U. after    9 cycles
 SCF Done:  E(RwB97XD) =  -1143.31557659     A.U. after    8 cycles
 Optimization completed.
    -- Stationary point found.
 Normal termination of Gaussian 16 at Fri Jan  7 21:26:49 2022.

 --------------------------------------------------------------------
 #N Geom=AllCheck Guess=TCheck SCRF=Check GenChk RwB97XD/def2SVP Freq
 --------------------------------------------------------------------

 Structure from the checkpoint file:  "ketone.chk"
 ----------
 [No Title]
 ----------
 Charge =  0 Multiplicity = 1

                         Standard orientation:
 ---------------------------------------------------------------------
 Center     Atomic      Atomic             Coordinates (Angstroms)
 Number     Number       Type             X           Y           Z
 ---------------------------------------------------------------------
      1          6           0       -3.600681   -1.089248    0.000008
      2          6           0       -2.851314    0.066643   -0.000012
      3          6           0       -1.438641    0.044630   -0.000024
      4          6           0       -0.776075   -1.202095   -0.000012
      5          6           0       -1.559356   -2.379999    0.000020
      6          6           0       -2.934951   -2.334347    0.000028
      7          6           0       -0.658210    1.283592   -0.000027
      8          6           0        0.749003    1.232420    0.000023
      9          6           0        1.437638   -0.059592    0.000019
     10          6           0        0.686561   -1.255053   -0.000022
     11          6           0       -1.284578    2.551098   -0.000063
     12          6           0       -0.573068    3.732804   -0.000039
     13          6           0        0.842449    3.681163    0.000033
     14          6           0        1.465996    2.450799    0.000059
     15          6           0        2.848218   -0.139431    0.000041
     16          6           0        3.512089   -1.346388    0.000015
     17          6           0        2.758099   -2.540058   -0.000052
     18          6           0        1.382741   -2.486400   -0.000074
     19          8           0       -3.753862   -3.421633    0.000060
     20          8           0       -4.947768   -1.044742    0.000019
     21          8           0       -1.142329    4.955518   -0.000075
     22          8           0        1.499149    4.859212    0.000068
     23          8           0        4.858830   -1.399679    0.000048
     24          8           0        3.496840   -3.683278   -0.000115
     25          1           0       -3.407081    1.002770   -0.000009
     26          1           0       -1.084500   -3.362717    0.000053
     27          1           0       -2.373462    2.623366   -0.000121
     28          1           0        2.557267    2.443547    0.000109
     29          1           0        3.469907    0.754443    0.000088
     30          1           0        0.838194   -3.432283   -0.000157
     31          1           0       -3.239658   -4.233272    0.000121
     32          1           0       -5.275009   -1.952755    0.000057
     33          1           0       -2.099160    4.860597   -0.000127
     34          1           0        2.446511    4.694946    0.000111
     35          1           0        5.118903   -2.329189    0.000061
     36          1           0        2.925690   -4.455866    0.000261
 ---------------------------------------------------------------------

 SCF Done:  E(RwB97XD) =  -1143.31557659     A.U. after    1 cycles

 The electronic state is 1-A.
 Alpha  occ. eigenvalues --  -19.30759 -19.30756 -19.28483 -19.28471 -19.28446
 Alpha  occ. eigenvalues --  -19.28446 -10.36519 -10.36517 -10.35885 -10.35882
 Alpha  occ. eigenvalues --  -10.35810 -10.35776 -10.31012 -10.30997 -10.30882
 Alpha  occ. eigenvalues --  -10.30870 -10.30750 -10.30739 -10.30621 -10.30581
 Alpha  occ. eigenvalues --  -10.29812 -10.29799 -10.29634 -10.29632  -1.18043
 Alpha  occ. eigenvalues --   -1.18036  -1.16581  -1.14649  -1.14649  -1.14390
 Alpha  occ. eigenvalues --   -0.98179  -0.94328  -0.94085  -0.87678  -0.86451
 Alpha  occ. eigenvalues --   -0.86292  -0.82373  -0.81195  -0.80858  -0.76061
 Alpha  occ. eigenvalues --   -0.74264  -0.73193  -0.71765  -0.69770  -0.67027
 Alpha  occ. eigenvalues --   -0.66560  -0.65132  -0.64553  -0.63389  -0.63174
 Alpha  occ. eigenvalues --   -0.59068  -0.58999  -0.58132  -0.55828  -0.54990
 Alpha  occ. eigenvalues --   -0.53729  -0.53341  -0.53236  -0.52965  -0.52450
 Alpha  occ. eigenvalues --   -0.51140  -0.50513  -0.49958  -0.49569  -0.48869
 Alpha  occ. eigenvalues --   -0.47712  -0.47198  -0.46960  -0.46846  -0.46676
 Alpha  occ. eigenvalues --   -0.46002  -0.45408  -0.44668  -0.43779  -0.41728
 Alpha  occ. eigenvalues --   -0.41415  -0.41319  -0.41239  -0.34074  -0.33457
 Alpha  occ. eigenvalues --   -0.32031  -0.30231  -0.26197  -0.26073
 Alpha virt. eigenvalues --    0.03561   0.03570   0.04210   0.10534   0.10552
 Alpha virt. eigenvalues --    0.10933   0.11619   0.13298   0.13462   0.14334
 Alpha virt. eigenvalues --    0.14920   0.16354   0.17526   0.18362   0.18960

 Mulliken charges:
               1
     1  C    0.120885
     2  C   -0.151283
     3  C    0.068973
     4  C    0.054571
     5  C   -0.146577
     6  C    0.141878
     7  C    0.054474
     8  C    0.054495
     9  C    0.068760
    10  C    0.054616
    11  C   -0.153354
    12  C    0.139062
    13  C    0.139059
    14  C   -0.153435
    15  C   -0.151323
    16  C    0.121129
    17  C    0.141748
    18  C   -0.146684
    19  O   -0.247157
    20  O   -0.195615
    21  O   -0.191559
    22  O   -0.191532
    23  O   -0.195574
    24  O   -0.247095
    25  H   -0.003327
    26  H   -0.038287
    27  H   -0.029882
    28  H   -0.029887
    29  H   -0.003268
    30  H   -0.038230
    31  H    0.197516
    32  H    0.191532
    33  H    0.188196
    34  H    0.188181
    35  H    0.191503
    36  H    0.197489
 Sum of Mulliken charges =  -0.00000

 Dipole moment (field-independent basis, Debye):
    X=             -0.1924    Y=             -5.2987    Z=              0.0008  Tot=              5.3022
 Quadrupole moment (field-independent basis, Debye-Ang):
   XX=           -126.8084   YY=           -106.9352   ZZ=           -142.0408
   XY=              0.7139   XZ=              0.0023   YZ=             -0.0038

  Exact polarizability: 299.353  -0.015 298.587   0.002  -0.001  84.892
 Approx polarizability: 334.687  -0.122 330.979   0.002  -0.000 115.921

                      1                      2                      3
                      A                      A                      A
 Frequencies --     44.0682                46.4631                70.2617
 Red. masses --      5.0542                 6.1217                 8.4848
 Frc consts  --      0.0058                 0.0078                 0.0247
 IR Inten    --      0.0006                 2.4310                 1.4068

                      4                      5                      6
                      A                      A                      A
 Frequencies --     77.8250               150.5473               153.9823
 Red. masses --      5.8443                 7.5473                 7.1740
 Frc consts  --      0.0209                 0.1008                 0.1002
 IR Inten    --      0.0001                 0.8149                 0.2368

                      7                      8                      9
                      A                      A                      A
 Frequencies --    170.7158               174.7812               240.0948
 Red. masses --      6.3637                 7.0256                 2.6282
 Frc consts  --      0.1093                 0.1265                 0.0893
 IR Inten    --      0.0022                 0.1556                 5.1534

                     10                     11                     12
                      A                      A                      A
 Frequencies --    241.6803               255.9070               262.2493
 Red. masses --      3.5699                 1.4349                 1.2219
 Frc consts  --      0.1229                 0.0554                 0.0495
 IR Inten    --     37.0667                14.5374               221.9261

                     13                     14                     15
                      A                      A                      A
 Frequencies --    287.8749               291.8772               305.6586
 Red. masses --      5.3996                 4.4005                 5.9544
 Frc consts  --      0.2636                 0.2209                 0.3278
 IR Inten    --      3.8633                 0.0111                 9.4368

                     16                     17                     18
                      A                      A                      A
 Frequencies --    318.3889               331.8183               339.0654
 Red. masses --      6.8245                 7.5953                 8.4434
 Frc consts  --      0.4076                 0.4927                 0.5719
 IR Inten    --      2.7313                 0.5692                12.6781

                     19                     20                     21
                      A                      A                      A
 Frequencies --    348.1762               350.0541               357.9910
 Red. masses --      1.8449                 6.2464                 5.9896
 Frc consts  --      0.1318                 0.4510                 0.4523
 IR Inten    --     53.2550                 3.4656                16.4137

                     22                     23                     24
                      A                      A                      A
 Frequencies --    363.1689               381.2048               424.0339
 Red. masses --      1.1174                 2.2252                 2.9798
 Frc consts  --      0.0868                 0.1905                 0.3157
 IR Inten    --      0.0010               143.2479                 0.1160

                     25                     26                     27
                      A                      A                      A
 Frequencies --    436.9539               456.5576               460.9683
 Red. masses --      2.3313                 1.8358                 1.2235
 Frc consts  --      0.2623                 0.2255                 0.1532
 IR Inten    --     67.6335                26.2730                 0.0053

                     28                     29                     30
                      A                      A                      A
 Frequencies --    469.3614               501.8483               503.5195
 Red. masses --      1.6119                 5.2117                 4.3620
 Frc consts  --      0.2092                 0.7734                 0.6516
 IR Inten    --     74.5993                 1.9440                 0.0184

                     31                     32                     33
                      A                      A                      A
 Frequencies --    525.1545               536.0040               538.6442
 Red. masses --      9.1209                 5.7904                 6.1297
 Frc consts  --      1.4820                 0.9802                 1.0478
 IR Inten    --      0.8238                 0.4057                 7.2656

                     34                     35                     36
                      A                      A                      A
 Frequencies --    628.5113               634.2642               677.6654
 Red. masses --      5.6324                 6.0383                 8.0610
 Frc consts  --      1.3109                 1.4312                 2.1811
 IR Inten    --     15.4403                44.8449                 0.6232

                     37                     38                     39
                      A                      A                      A
 Frequencies --    684.6021               697.1138               698.1991
 Red. masses --      7.3396                 5.6762                 7.2776
 Frc consts  --      2.0267                 1.6252                 2.0902
 IR Inten    --      5.9461                 0.0001                 0.1791

                     40                     41                     42
                      A                      A                      A
 Frequencies --    701.5344               706.1717               728.6319
 Red. masses --      3.7276                 5.2943                 3.0661
 Frc consts  --      1.0809                 1.5555                 0.9591
 IR Inten    --     37.9327                 0.0007                 0.0000

                     43                     44                     45
                      A                      A                      A
 Frequencies --    733.9480               746.1848               814.9370
 Red. masses --      3.5636                 6.4208                 1.8545
 Frc consts  --      1.1310                 2.1064                 0.7257
 IR Inten    --      1.6167                 0.3261                 0.0063

                     46                     47                     48
                      A                      A                      A
 Frequencies --    829.5750               831.6297               860.7888
 Red. masses --      5.4586                 6.0786                 1.4861
 Frc consts  --      2.2133                 2.4769                 0.6488
 IR Inten    --      9.6043                52.6353                24.1211

                     49                     50                     51
                      A                      A                      A
 Frequencies --    862.5873               883.6914               887.8232
 Red. masses --      1.7317                 1.5680                 4.3387
 Frc consts  --      0.7592                 0.7214                 2.0150
 IR Inten    --      2.4648                38.3613                 0.6598

                     52                     53                     54
                      A                      A                      A
 Frequencies --    890.7722               897.2841               908.9527
 Red. masses --      9.4601                 2.0544                 1.5942
 Frc consts  --      4.4226                 0.9746                 0.7760
 IR Inten    --      0.0339                 0.0019                41.0318

                     55                     56                     57
                      A                      A                      A
 Frequencies --    923.0594              1034.5915              1035.8175
 Red. masses --      2.7296                 2.4736                 2.4749
 Frc consts  --      1.3703                 1.5600                 1.5645
 IR Inten    --      0.0097                16.8635                23.6427

                     58                     59                     60
                      A                      A                      A
 Frequencies --   1165.8665              1178.0584              1179.6942
 Red. masses --      1.4207                 1.7201                 1.7152
 Frc consts  --      1.1377                 1.4065                 1.4063
 IR Inten    --    101.8638               131.9171               317.8032

                     61                     62                     63
                      A                      A                      A
 Frequencies --   1202.7230              1210.3372              1224.2590
 Red. masses --      1.3509                 1.7252                 1.9961
 Frc consts  --      1.1513                 1.4890                 1.7627
 IR Inten    --    273.0920               118.4223                98.2050

                     64                     65                     66
                      A                      A                      A
 Frequencies --   1225.2368              1238.4896              1248.7720
 Red. masses --      2.4721                 3.0344                 1.6895
 Frc consts  --      2.1866                 2.7422                 1.5523
 IR Inten    --    220.8857                29.7667                50.3512

                     67                     68                     69
                      A                      A                      A
 Frequencies --   1259.1097              1270.5114              1280.6619
 Red. masses --      1.4135                 1.9424                 1.3827
 Frc consts  --      1.3203                 1.8474                 1.3361
 IR Inten    --     39.9375                48.0455                 7.7581

                     70                     71                     72
                      A                      A                      A
 Frequencies --   1344.5096              1347.2396              1356.3115
 Red. masses --      3.7033                 3.4354                 3.2196
 Frc consts  --      3.9442                 3.6738                 3.4895
 IR Inten    --     90.3419                59.0449               201.8475

                     73                     74                     75
                      A                      A                      A
 Frequencies --   1360.3423              1383.2837              1388.6028
 Red. masses --      2.0923                 2.7210                 2.7366
 Frc consts  --      2.2812                 3.0676                 3.1090
 IR Inten    --    252.0585               109.4577               146.1706

                     76                     77                     78
                      A                      A                      A
 Frequencies --   1414.2165              1427.6637              1473.5635
 Red. masses --      3.6423                 2.5273                 6.5025
 Frc consts  --      4.2920                 3.0350                 8.3189
 IR Inten    --     27.5537                18.2903                 3.6635

                     79                     80                     81
                      A                      A                      A
 Frequencies --   1507.3856              1527.3111              1541.8741
 Red. masses --      5.9915                 7.6720                 5.2286
 Frc consts  --      8.0211                10.5442                 7.3238
 IR Inten    --    116.8068               323.9886                32.8630

                     82                     83                     84
                      A                      A                      A
 Frequencies --   1570.0919              1605.6724              1619.5772
 Red. masses --      5.6518                 4.9691                 4.7442
 Frc consts  --      8.2089                 7.5482                 7.3320
 IR Inten    --      5.1769               554.4813               364.2659

                     85                     86                     87
                      A                      A                      A
 Frequencies --   1660.3444              1689.5086              1692.1642
 Red. masses --      5.3905                 8.2234                 7.7368
 Frc consts  --      8.7555                13.8299                13.0527
 IR Inten    --      8.2581                77.9683                27.2896

                     88                     89                     90
                      A                      A                      A
 Frequencies --   1723.4982              1736.9703              1738.8568
 Red. masses --      7.7951                 7.4635                 7.6792
 Frc consts  --     13.6425                13.2671                13.6802
 IR Inten    --     53.1071                25.7881                17.9110

                     91                     92                     93
                      A                      A                      A
 Frequencies --   3204.6426              3209.0963              3212.6611
 Red. masses --      1.0924                 1.0911                 1.0916
 Frc consts  --      6.6099                 6.6205                 6.6381
 IR Inten    --      0.4987                 9.9008                10.7163

                     94                     95                     96
                      A                      A                      A
 Frequencies --   3221.1830              3252.4727              3253.0738
 Red. masses --      1.0881                 1.0900                 1.0898
 Frc consts  --      6.6522                 6.7939                 6.7947
 IR Inten    --     30.1636                 9.1406                 4.4146

                     97                     98                     99
                      A                      A                      A
 Frequencies --   3862.8313              3869.6873              3918.6380
 Red. masses --      1.0654                 1.0651                 1.0659
 Frc consts  --      9.3669                 9.3975                 9.6437
 IR Inten    --    180.4621               178.4299               137.7178

                    100                    101                    102
                      A                      A                      A
 Frequencies --   3919.3845              3932.1101              3935.0740
 Red. masses --      1.0661                 1.0664                 1.0665
 Frc consts  --      9.6493                 9.7145                 9.7298
 IR Inten    --     55.9819                79.8954               147.3716

 - Thermochemistry -
 -------------------
 Temperature   298.150 Kelvin.  Pressure   1.00000 Atm.
 Atom     1 has atomic number  6 and mass  12.00000

 Molecular mass:   324.06339 amu.
 Principal axes and moments of inertia in atomic units:
                           1         2         3
     Eigenvalues --  7964.310628023.75949**********
           X            0.99980   0.01988   0.00000
           Y           -0.01988   0.99980  -0.00000
           Z           -0.00000   0.00000   1.00000
 This molecule is an asymmetric top.
 Rotational symmetry number  1.
 Warning -- assumption of classical behavior for rotation
           may cause significant error
 Rotational temperatures (Kelvin)      0.01088     0.01079     0.00542
 Rotational constants (GHZ):           0.22660     0.22492     0.11288
 Zero-point vibrational energy     713565.3 (Joules/Mol)
                                  170.54619 (Kcal/Mol)
 Warning -- explicit consideration of  33 degrees of freedom as
           vibrations may cause significant error
 Vibrational temperatures:     63.40    66.85   101.09   111.97   216.60
          (Kelvin)            221.55   245.62   251.47   345.44   347.72
                              368.19   377.32   414.19   419.95   439.77
                              458.09   477.41   487.84   500.95   503.65
                              515.07   522.52   548.47   610.09   628.68
                              656.88   663.23   675.31   722.05   724.45
                              755.58   771.19   774.99   904.29   912.56
                              975.01   984.99  1002.99  1004.55  1009.35
                             1016.02  1048.34  1055.99  1073.59  1172.51
                             1193.57  1196.53  1238.48  1241.07  1271.43
                             1277.38  1281.62  1290.99  1307.78  1328.08
                             1488.55  1490.31  1677.42  1694.96  1697.32
                             1730.45  1741.41  1761.44  1762.84  1781.91
                             1796.70  1811.58  1827.98  1842.59  1934.45
                             1938.38  1951.43  1957.23  1990.24  1997.89
                             2034.74  2054.09  2120.13  2168.79  2197.46
                             2218.41  2259.01  2310.20  2330.21  2388.87
                             2430.83  2434.65  2479.73  2499.11  2501.83
                             4610.77  4617.17  4622.30  4634.56  4679.58
                             4680.45  5557.75  5567.62  5638.05  5639.12
                             5657.43  5661.69

 Zero-point correction=                           0.271783 (Hartree/Particle)
 Thermal correction to Energy=                    0.291159
 Thermal correction to Enthalpy=                  0.292103
 Thermal correction to Gibbs Free Energy=         0.225346
 Sum of electronic and zero-point Energies=          -1143.043794
 Sum of electronic and thermal Energies=             -1143.024418
 Sum of electronic and thermal Enthalpies=           -1143.023474
 Sum of electronic and thermal Free Energies=        -1143.090231

                     E (Thermal)             CV                S
                      KCal/Mol        Cal/Mol-Kelvin    Cal/Mol-Kelvin
 Total                  182.705             78.712            140.502
 Electronic               0.000              0.000              0.000
 Translational            0.889              2.981             43.223
 Rotational               0.889              2.981             35.278
 Vibrational            180.927             72.751             62.001
 Vibration     1          0.595              1.980              5.067
 Vibration     2          0.595              1.979              4.963
 Vibration     3          0.598              1.968              4.146
 Vibration     4          0.599              1.964              3.945
 Vibration     5          0.618              1.902              2.665
 Vibration     6          0.619              1.898              2.622
 Vibration     7          0.626              1.879              2.428
 Vibration     8          0.627              1.873              2.383
 Vibration     9          0.657              1.779              1.802
 Vibration    10          0.658              1.776              1.790
 Vibration    11          0.666              1.753              1.690
 Vibration    12          0.670              1.742              1.647
 Vibration    13          0.685              1.696              1.486
 Vibration    14          0.687              1.689              1.463
 Vibration    15          0.696              1.663              1.386
 Vibration    16          0.705              1.638              1.318
 Vibration    17          0.714              1.612              1.251
 Vibration    18          0.719              1.597              1.217
 Vibration    19          0.726              1.579              1.174
 Vibration    20          0.727              1.575              1.166
 Vibration    21          0.733              1.559              1.131
 Vibration    22          0.737              1.548              1.109
 Vibration    23          0.751              1.510              1.034
 Vibration    24          0.786              1.418              0.878
 Vibration    25          0.797              1.390              0.836
 Vibration    26          0.815              1.346              0.776
 Vibration    27          0.819              1.337              0.763
 Vibration    28          0.826              1.318              0.739
 Vibration    29          0.857              1.246              0.654
 Vibration    30          0.859              1.242              0.649
 Vibration    31          0.880              1.194              0.598
 Vibration    32          0.891              1.170              0.574
 Vibration    33          0.894              1.165              0.568

                           ! Non-Optimized Parameters !
 Normal termination of Gaussian 16 at Fri Jan  7 21:32:29 2022.
