 Gaussian 16, Revision A.03,
 Gaussian 16:  ES64L-G16RevA.03 25-Dec-2016

 --------------------------------
 #opt freq wb97xd def2svp scf=xqc
 --------------------------------

 ----------
 [No Title]
 ----------
 Symbolic Z-matrix:
 Charge =  0 Multiplicity = 1

 SCF Done:  E(RwB97XD) =  -1371.50162848     A.U. after   16 cycles
 SCF Done:  E(RwB97XD) =  -1371.50903528     A.U. after   13 cycles
 SCF Done:  E(RwB97XD) =  -1371.50926034     A.U. after   11 cycles
 SCF Done:  E(RwB97XD) =  -1371.50924664     A.U. after    9 cycles
 SCF Done:  E(RwB97XD) =  -1371.50926770     A.U. after    9 cycles
 SCF Done:  E(RwB97XD) =  -1371.50925906     A.U. after    8 cycles
 Optimization completed.
    -- Stationary point found.
 Normal termination of Gaussian 16 at Fri Jan  7 22:54:02 2022.

 --------------------------------------------------------------------
 #N Geom=AllCheck Guess=TCheck SCRF=Check GenChk RwB97XD/def2SVP Freq
 --------------------------------------------------------------------

 Structure from the checkpoint file:  "ketone.chk"
 ----------
 [No Title]
 ----------
 Charge =  0 Multiplicity = 1

                         Standard orientation:
 ---------------------------------------------------------------------
 Center     Atomic      Atomic             Coordinates (Angstroms)
 Number     Number       Type             X           Y           Z
 ---------------------------------------------------------------------
      1          6           0        0.444094    4.196962    0.000087
      2          6           0        0.056551    2.847363    0.000122
      3          6           0       -1.319052    2.517986    0.000048
      4          6           0       -2.267637    3.555288   -0.000063
      5          6           0       -1.868972    4.881682   -0.000100
      6          6           0       -0.500448    5.213258   -0.000023
      7          6           0        1.048975    1.817519    0.000244
      8          6           0        1.879055    0.932182    0.000316
      9          6           0        2.846306   -0.120223    0.000142
     10          6           0        4.218132    0.185206    0.000048
     11          6           0        5.168506   -0.822278   -0.000084
     12          6           0        4.772996   -2.173957   -0.000132
     13          6           0        3.420922   -2.486061   -0.000043
     14          6           0        2.445349   -1.476394    0.000090
     15          6           0        1.057285   -1.821758    0.000198
     16          6           0       -0.123617   -2.100221    0.000261
     17          6           0       -1.519013   -2.414309    0.000124
     18          6           0       -1.936094   -3.754880    0.000086
     19          6           0       -3.283736   -4.085314   -0.000016
     20          6           0       -4.245302   -3.056467   -0.000093
     21          6           0       -3.849919   -1.729012   -0.000065
     22          6           0       -2.487443   -1.383481    0.000054
     23          6           0       -1.747753    1.154339    0.000078
     24          6           0       -2.096090   -0.008587    0.000081
     25          8           0       -2.715877    5.945463   -0.000205
     26          8           0       -0.119674    6.503355   -0.000058
     27          8           0        6.512583   -0.618785   -0.000193
     28          8           0        5.700890   -3.147326   -0.000259
     29          8           0       -3.673316   -5.372478   -0.000039
     30          8           0       -5.537550   -3.479405   -0.000226
     31          1           0        1.500913    4.464988    0.000145
     32          1           0       -3.331277    3.304748   -0.000122
     33          1           0        4.530962    1.232198    0.000081
     34          1           0        3.125531   -3.535579   -0.000072
     35          1           0       -1.199759   -4.558956    0.000155
     36          1           0       -4.601214   -0.935474   -0.000144
     37          1           0       -3.631056    5.652180   -0.000340
     38          1           0       -0.916287    7.049096   -0.000150
     39          1           0        6.714800    0.320824    0.000176
     40          1           0        6.571507   -2.729715   -0.000242
     41          1           0       -4.638595   -5.392860   -0.000032
     42          1           0       -6.140550   -2.731113    0.000230
 ---------------------------------------------------------------------

 SCF Done:  E(RwB97XD) =  -1371.50925906     A.U. after    1 cycles

 The electronic state is 1-A.
 Alpha  occ. eigenvalues --  -19.31294 -19.31186 -19.31031 -19.29126 -19.28982
 Alpha  occ. eigenvalues --  -19.28876 -10.37321 -10.37220 -10.37089 -10.36841
 Alpha  occ. eigenvalues --  -10.36720 -10.36616 -10.33211 -10.33158 -10.33114
 Alpha  occ. eigenvalues --  -10.33036 -10.32985 -10.32936 -10.31858 -10.31770
 Alpha  occ. eigenvalues --  -10.31605 -10.30875 -10.30717 -10.30631 -10.29925
 Alpha  occ. eigenvalues --  -10.29759 -10.29698 -10.29592 -10.29522 -10.29364
 Alpha  occ. eigenvalues --   -1.18692  -1.18575  -1.18444  -1.15343  -1.15220
 Alpha  occ. eigenvalues --   -1.15099  -0.97111  -0.96762  -0.96648  -0.88531
 Alpha  occ. eigenvalues --   -0.88029  -0.88002  -0.86239  -0.86216  -0.86051
 Alpha  occ. eigenvalues --   -0.81536  -0.81470  -0.79807  -0.75824  -0.75450
 Alpha  occ. eigenvalues --   -0.74405  -0.74023  -0.72005  -0.71143  -0.67370
 Alpha  occ. eigenvalues --   -0.66837  -0.66123  -0.65930  -0.65296  -0.64907
 Alpha  occ. eigenvalues --   -0.60786  -0.60602  -0.60064  -0.59343  -0.58835
 Alpha  occ. eigenvalues --   -0.58019  -0.54172  -0.54038  -0.53910  -0.53571
 Alpha  occ. eigenvalues --   -0.53379  -0.53224  -0.52861  -0.52483  -0.52074
 Alpha  occ. eigenvalues --   -0.50314  -0.50031  -0.49891  -0.48134  -0.47819
 Alpha  occ. eigenvalues --   -0.47634  -0.47579  -0.47478  -0.47281  -0.47097
 Alpha  occ. eigenvalues --   -0.45655  -0.45582  -0.44507  -0.44373  -0.44243
 Alpha  occ. eigenvalues --   -0.39163  -0.38941  -0.36195  -0.36087  -0.34528
 Alpha  occ. eigenvalues --   -0.34324  -0.34100  -0.32603  -0.31894  -0.28872
 Alpha  occ. eigenvalues --   -0.28353  -0.24810
 Alpha virt. eigenvalues --   -0.00812   0.03215   0.03318   0.06483   0.08237
 Alpha virt. eigenvalues --    0.08280   0.10942   0.11024   0.11475   0.12109
 Alpha virt. eigenvalues --    0.12578   0.14054   0.14675   0.15545   0.16047

 Mulliken charges:
               1
     1  C   -0.096499
     2  C    0.004326
     3  C   -0.009376
     4  C   -0.107820
     5  C    0.140768
     6  C    0.133098
     7  C   -0.017469
     8  C   -0.011649
     9  C   -0.011917
    10  C   -0.106605
    11  C    0.140924
    12  C    0.133054
    13  C   -0.094881
    14  C    0.002383
    15  C   -0.011322
    16  C   -0.013832
    17  C    0.001855
    18  C   -0.094694
    19  C    0.132956
    20  C    0.140643
    21  C   -0.108041
    22  C   -0.009139
    23  C   -0.017426
    24  C   -0.015458
    25  O   -0.248547
    26  O   -0.197741
    27  O   -0.248177
    28  O   -0.196725
    29  O   -0.196523
    30  O   -0.248129
    31  H    0.017030
    32  H   -0.004429
    33  H   -0.000544
    34  H    0.020661
    35  H    0.021220
    36  H   -0.004975
    37  H    0.200296
    38  H    0.193966
    39  H    0.200943
    40  H    0.193971
    41  H    0.193820
    42  H    0.200004
 Sum of Mulliken charges =  -0.00000

 Dipole moment (field-independent basis, Debye):
    X=             -3.2514    Y=              3.4450    Z=              0.0006  Tot=              4.7371
 Quadrupole moment (field-independent basis, Debye-Ang):
   XX=            -97.5973   YY=           -161.2053   ZZ=           -175.3015
   XY=             -1.7948   XZ=              0.0010   YZ=             -0.0049

  Exact polarizability: 441.989  -0.086 440.262   0.002  -0.000 107.962
 Approx polarizability: 453.031   0.159 460.129   0.002   0.000 141.979

                      1                      2                      3
                      A                      A                      A
 Frequencies --     34.2583                34.4182                38.4463
 Red. masses --      6.1429                 6.4299                 9.1180
 Frc consts  --      0.0042                 0.0045                 0.0079
 IR Inten    --      0.2132                 3.1478                 2.3804

                      4                      5                      6
                      A                      A                      A
 Frequencies --     68.5789                70.0752                70.7695
 Red. masses --      6.0665                 7.6906                 7.5606
 Frc consts  --      0.0168                 0.0223                 0.0223
 IR Inten    --      0.5553                 1.8010                 0.0121

                      7                      8                      9
                      A                      A                      A
 Frequencies --    104.8262               105.0239               163.0291
 Red. masses --      8.5828                 8.2170                 7.7330
 Frc consts  --      0.0556                 0.0534                 0.1211
 IR Inten    --      0.4694                 0.1157                 1.6309

                     10                     11                     12
                      A                      A                      A
 Frequencies --    180.0827               181.2408               187.9363
 Red. masses --      7.7643                 7.7363                 9.5973
 Frc consts  --      0.1484                 0.1497                 0.1997
 IR Inten    --      0.3588                 0.2741                 0.0359

                     13                     14                     15
                      A                      A                      A
 Frequencies --    188.1900               229.2115               238.4627
 Red. masses --      9.2422                 5.7589                 2.4219
 Frc consts  --      0.1928                 0.1783                 0.0811
 IR Inten    --      0.0294                 5.2257               103.6543

                     16                     17                     18
                      A                      A                      A
 Frequencies --    252.1378               252.9684               261.8672
 Red. masses --      8.6656                 1.1787                 1.1223
 Frc consts  --      0.3246                 0.0444                 0.0453
 IR Inten    --      0.2288                 0.8842                 5.3834

                     19                     20                     21
                      A                      A                      A
 Frequencies --    271.8308               294.9636               303.4725
 Red. masses --      1.5838                 5.1538                 4.9631
 Frc consts  --      0.0690                 0.2642                 0.2693
 IR Inten    --    321.3958                 4.4350                 1.1364

                     22                     23                     24
                      A                      A                      A
 Frequencies --    304.2140               309.1619               326.1469
 Red. masses --      6.3031                 5.2716                 5.4093
 Frc consts  --      0.3437                 0.2969                 0.3390
 IR Inten    --      1.6599                 4.5826                 4.5815

                     25                     26                     27
                      A                      A                      A
 Frequencies --    384.6506               386.1718               395.5645
 Red. masses --      8.2812                 8.9548                 6.9024
 Frc consts  --      0.7219                 0.7868                 0.6363
 IR Inten    --      0.0075                 0.0121                13.9969

                     28                     29                     30
                      A                      A                      A
 Frequencies --    395.8588               424.3868               431.8751
 Red. masses --      6.9438                11.2821                 6.7706
 Frc consts  --      0.6411                 1.1972                 0.7440
 IR Inten    --      1.8116                 0.0922                10.6726

                     31                     32                     33
                      A                      A                      A
 Frequencies --    449.3447               450.2522               450.9089
 Red. masses --      2.2386                 1.9523                 2.0338
 Frc consts  --      0.2663                 0.2332                 0.2436
 IR Inten    --     52.4495                 0.1130                 6.3667

                     34                     35                     36
                      A                      A                      A
 Frequencies --    474.2593               476.3228               477.2823
 Red. masses --      1.4442                 1.4002                 1.3756
 Frc consts  --      0.1914                 0.1872                 0.1846
 IR Inten    --    144.1455                21.4360                 3.7712

                     37                     38                     39
                      A                      A                      A
 Frequencies --    485.2057               489.6639               497.5130
 Red. masses --      9.5199                 8.9237                 9.1470
 Frc consts  --      1.3205                 1.2606                 1.3339
 IR Inten    --      0.0728                 8.8510                13.1863

                     40                     41                     42
                      A                      A                      A
 Frequencies --    497.7682               503.5236               547.1277
 Red. masses --      9.6780                 4.5051                 9.5104
 Frc consts  --      1.4128                 0.6730                 1.6774
 IR Inten    --     27.9238                 0.0294                 3.7034

                     43                     44                     45
                      A                      A                      A
 Frequencies --    547.9241               569.3615               570.4319
 Red. masses --     10.6871                 8.2284                 8.2073
 Frc consts  --      1.8904                 1.5716                 1.5735
 IR Inten    --     13.5817                 0.0020                 0.0023

                     46                     47                     48
                      A                      A                      A
 Frequencies --    638.3697               639.0405               675.3439
 Red. masses --      8.3546                 8.3044                 4.8608
 Frc consts  --      2.0060                 1.9981                 1.3062
 IR Inten    --      0.4493                 1.4602                35.7985

                     49                     50                     51
                      A                      A                      A
 Frequencies --    675.9331               694.6925               698.1857
 Red. masses --      4.9531                 5.2908                 6.8139
 Frc consts  --      1.3333                 1.5044                 1.9570
 IR Inten    --      1.7952                21.7532                 1.7482

                     52                     53                     54
                      A                      A                      A
 Frequencies --    705.3627               705.5425               707.5565
 Red. masses --      7.3509                 7.2966                 6.5352
 Frc consts  --      2.1548                 2.1400                 1.9277
 IR Inten    --      0.0132                 0.0045                 0.0100

                     55                     56                     57
                      A                      A                      A
 Frequencies --    744.9939               745.2330               749.2021
 Red. masses --      5.1236                 5.1649                 5.7491
 Frc consts  --      1.6754                 1.6900                 1.9013
 IR Inten    --      0.7929                 0.5910                 0.1727

                     58                     59                     60
                      A                      A                      A
 Frequencies --    750.8229               784.1514               785.6180
 Red. masses --      9.1335                 7.3768                 7.4323
 Frc consts  --      3.0336                 2.6725                 2.7027
 IR Inten    --      1.3033                 4.4730                 3.1587

                     61                     62                     63
                      A                      A                      A
 Frequencies --    845.0008               878.3900               880.3161
 Red. masses --      4.4211                 1.4526                 1.4492
 Frc consts  --      1.8599                 0.6604                 0.6617
 IR Inten    --      0.7014                 2.8431                18.0543

                     64                     65                     66
                      A                      A                      A
 Frequencies --    881.4383               895.8824               898.9460
 Red. masses --      1.4470                 3.4845                 3.4787
 Frc consts  --      0.6624                 1.6478                 1.6563
 IR Inten    --      5.9874                47.3715                76.5401

                     67                     68                     69
                      A                      A                      A
 Frequencies --    917.9537               918.3523               919.6266
 Red. masses --      1.4375                 1.4388                 1.4340
 Frc consts  --      0.7137                 0.7150                 0.7145
 IR Inten    --     17.6739                 4.0675                62.5656

                     70                     71                     72
                      A                      A                      A
 Frequencies --   1091.7247              1093.9547              1161.7307
 Red. masses --      4.7223                 4.5367                 1.4674
 Frc consts  --      3.3161                 3.1988                 1.1669
 IR Inten    --      3.9893                 4.8647                 9.7358

                     73                     74                     75
                      A                      A                      A
 Frequencies --   1166.1196              1167.4265              1171.0258
 Red. masses --      1.4053                 1.4329                 1.5443
 Frc consts  --      1.1259                 1.1506                 1.2477
 IR Inten    --    156.6383               506.1480                34.6709

                     76                     77                     78
                      A                      A                      A
 Frequencies --   1202.7910              1209.0550              1218.2514
 Red. masses --      1.5322                 1.5305                 1.6620
 Frc consts  --      1.3060                 1.3182                 1.4533
 IR Inten    --    167.4510               100.7231                53.8463

                     79                     80                     81
                      A                      A                      A
 Frequencies --   1236.9922              1242.3506              1245.6432
 Red. masses --      1.8597                 1.7248                 1.6116
 Frc consts  --      1.6766                 1.5685                 1.4734
 IR Inten    --      0.7514                27.6385                24.6551

                     82                     83                     84
                      A                      A                      A
 Frequencies --   1262.1791              1268.9844              1273.0697
 Red. masses --      4.8991                 1.9513                 1.9091
 Frc consts  --      4.5984                 1.8513                 1.8230
 IR Inten    --      3.6504                22.2898               132.4453

                     85                     86                     87
                      A                      A                      A
 Frequencies --   1347.3514              1353.0863              1353.8193
 Red. masses --      4.7109                 5.1435                 6.1590
 Frc consts  --      5.0387                 5.5483                 6.6509
 IR Inten    --     59.4961                61.6220                73.6475

                     88                     89                     90
                      A                      A                      A
 Frequencies --   1365.3492              1369.2762              1382.8254
 Red. masses --      2.8712                 2.6023                 2.1430
 Frc consts  --      3.1535                 2.8747                 2.4144
 IR Inten    --    670.6964                84.9453               311.0044

                     91                     92                     93
                      A                      A                      A
 Frequencies --   1406.3730              1445.5907              1461.3469
 Red. masses --      3.4925                 6.0258                 4.2899
 Frc consts  --      4.0700                 7.4191                 5.3976
 IR Inten    --     45.8565               215.1267                16.1695

                     94                     95                     96
                      A                      A                      A
 Frequencies --   1504.6253              1516.9447              1534.2764
 Red. masses --      6.5371                 5.6006                 6.4359
 Frc consts  --      8.7195                 7.5932                 8.9262
 IR Inten    --     75.2121                 8.9045                40.9639

                     97                     98                     99
                      A                      A                      A
 Frequencies --   1589.8434              1596.0672              1599.3158
 Red. masses --      5.1855                 5.2762                 5.2452
 Frc consts  --      7.7224                 7.9191                 7.9046
 IR Inten    --     52.9719               539.1578               525.5483

                    100                    101                    102
                      A                      A                      A
 Frequencies --   1666.0167              1666.4852              1668.5703
 Red. masses --      7.3977                 7.4163                 7.3551
 Frc consts  --     12.0978                12.1350                12.0649
 IR Inten    --    254.6299               139.3719                12.0120

                    103                    104                    105
                      A                      A                      A
 Frequencies --   1713.8966              1714.6224              1718.1269
 Red. masses --      7.6300                 7.6269                 7.7200
 Frc consts  --     13.2051                13.2109                13.4270
 IR Inten    --     69.5739                31.3172                 2.5724

                    106                    107                    108
                      A                      A                      A
 Frequencies --   2361.6505              2364.9009              2367.9411
 Red. masses --     11.9985                11.9990                11.9991
 Frc consts  --     39.4284                39.5387                39.6406
 IR Inten    --      2.8975                 3.4252                 4.0142

                    109                    110                    111
                      A                      A                      A
 Frequencies --   3206.0678              3206.9600              3207.5676
 Red. masses --      1.0933                 1.0933                 1.0934
 Frc consts  --      6.6211                 6.6247                 6.6281
 IR Inten    --      8.3681                10.4735                 6.9115

                    112                    113                    114
                      A                      A                      A
 Frequencies --   3240.1478              3240.8063              3241.3418
 Red. masses --      1.0937                 1.0938                 1.0938
 Frc consts  --      6.7649                 6.7685                 6.7706
 IR Inten    --      1.9090                 1.5440                 1.5098

                    115                    116                    117
                      A                      A                      A
 Frequencies --   3857.1296              3859.1736              3863.8403
 Red. masses --      1.0654                 1.0654                 1.0653
 Frc consts  --      9.3391                 9.3489                 9.3701
 IR Inten    --    218.1958               207.7528               195.0462

                    118                    119                    120
                      A                      A                      A
 Frequencies --   3930.7368              3930.8669              3933.3488
 Red. masses --      1.0666                 1.0666                 1.0666
 Frc consts  --      9.7091                 9.7098                 9.7224
 IR Inten    --    213.9779                72.0705               159.9564

 - Thermochemistry -
 -------------------
 Temperature   298.150 Kelvin.  Pressure   1.00000 Atm.
 Atom     1 has atomic number  6 and mass  12.00000

 Molecular mass:   396.06339 amu.
 Principal axes and moments of inertia in atomic units:
                           1         2         3
     Eigenvalues --  ******************************
           X            0.08928   0.99601   0.00000
           Y            0.99601  -0.08928  -0.00000
           Z            0.00000  -0.00000   1.00000
 This molecule is an asymmetric top.
 Rotational symmetry number  1.
 Warning -- assumption of classical behavior for rotation
           may cause significant error
 Rotational temperatures (Kelvin)      0.00560     0.00559     0.00280
 Rotational constants (GHZ):           0.11677     0.11647     0.05831
 Zero-point vibrational energy     794979.9 (Joules/Mol)
                                  190.00474 (Kcal/Mol)
 Warning -- explicit consideration of  45 degrees of freedom as
           vibrations may cause significant error
 Vibrational temperatures:     49.29    49.52    55.32    98.67   100.82
          (Kelvin)            101.82   150.82   151.11   234.56   259.10
                              260.77   270.40   270.76   329.78   343.09
                              362.77   363.97   376.77   391.10   424.39
                              436.63   437.70   444.81   469.25   553.43
                              555.62   569.13   569.55   610.60   621.37
                              646.51   647.81   648.76   682.35   685.32
                              686.70   698.10   704.52   715.81   716.18
                              724.46   787.19   788.34   819.18   820.72
                              918.47   919.44   971.67   972.52   999.51
                             1004.53  1014.86  1015.12  1018.02  1071.88
                             1072.22  1077.93  1080.27  1128.22  1130.33
                             1215.77  1263.81  1266.58  1268.19  1288.98
                             1293.38  1320.73  1321.30  1323.14  1570.75
                             1573.96  1671.47  1677.79  1679.67  1684.84
                             1730.55  1739.56  1752.79  1779.76  1787.47
                             1792.20  1815.99  1825.79  1831.66  1938.54
                             1946.79  1947.84  1964.43  1970.08  1989.58
                             2023.46  2079.88  2102.55  2164.82  2182.55
                             2207.48  2287.43  2296.38  2301.06  2397.03
                             2397.70  2400.70  2465.91  2466.96  2472.00
                             3397.89  3402.56  3406.94  4612.82  4614.10
                             4614.97  4661.85  4662.80  4663.57  5549.55
                             5552.49  5559.20  5655.45  5655.64  5659.21

 Zero-point correction=                           0.302792 (Hartree/Particle)
 Thermal correction to Energy=                    0.327716
 Thermal correction to Enthalpy=                  0.328660
 Thermal correction to Gibbs Free Energy=         0.248850
 Sum of electronic and zero-point Energies=          -1371.206467
 Sum of electronic and thermal Energies=             -1371.181543
 Sum of electronic and thermal Enthalpies=           -1371.180599
 Sum of electronic and thermal Free Energies=        -1371.260409

                     E (Thermal)             CV                S
                      KCal/Mol        Cal/Mol-Kelvin    Cal/Mol-Kelvin
 Total                  205.645             98.869            167.974
 Electronic               0.000              0.000              0.000
 Translational            0.889              2.981             43.821
 Rotational               0.889              2.981             37.247
 Vibrational            203.867             92.907             86.906
 Vibration     1          0.594              1.983              5.566
 Vibration     2          0.594              1.983              5.557
 Vibration     3          0.594              1.982              5.338
 Vibration     4          0.598              1.969              4.194
 Vibration     5          0.598              1.968              4.151
 Vibration     6          0.598              1.968              4.132
 Vibration     7          0.605              1.945              3.363
 Vibration     8          0.605              1.945              3.359
 Vibration     9          0.623              1.888              2.514
 Vibration    10          0.629              1.867              2.328
 Vibration    11          0.630              1.865              2.316
 Vibration    12          0.633              1.856              2.248
 Vibration    13          0.633              1.856              2.246
 Vibration    14          0.652              1.796              1.885
 Vibration    15          0.656              1.782              1.814
 Vibration    16          0.664              1.759              1.716
 Vibration    17          0.664              1.758              1.710
 Vibration    18          0.669              1.743              1.649
 Vibration    19          0.675              1.725              1.585
 Vibration    20          0.689              1.683              1.445
 Vibration    21          0.695              1.667              1.398
 Vibration    22          0.695              1.666              1.394
 Vibration    23          0.699              1.656              1.367
 Vibration    24          0.710              1.623              1.279
 Vibration    25          0.754              1.503              1.021
 Vibration    26          0.755              1.500              1.015
 Vibration    27          0.762              1.480              0.979
 Vibration    28          0.763              1.479              0.978
 Vibration    29          0.786              1.417              0.877
 Vibration    30          0.793              1.401              0.853
 Vibration    31          0.808              1.362              0.798
 Vibration    32          0.809              1.360              0.795
 Vibration    33          0.810              1.359              0.793
 Vibration    34          0.831              1.307              0.726
 Vibration    35          0.833              1.303              0.720
 Vibration    36          0.834              1.300              0.717
 Vibration    37          0.841              1.283              0.696
 Vibration    38          0.846              1.273              0.684
 Vibration    39          0.853              1.256              0.664
 Vibration    40          0.853              1.255              0.664
 Vibration    41          0.859              1.242              0.649
 Vibration    42          0.902              1.146              0.550
 Vibration    43          0.903              1.144              0.548
 Vibration    44          0.925              1.098              0.505
 Vibration    45          0.927              1.095              0.503

 Optimization completed.
    -- Stationary point found.
 Normal termination of Gaussian 16 at Fri Jan  7 23:01:52 2022.
