 Gaussian 16, Revision A.03,
 Gaussian 16:  ES64L-G16RevA.03 25-Dec-2016

 --------------------------------------------------------------
 #opt freq wb97xd def2svp scf=xqc scrf=(smd,solvent=2-propanol)
 --------------------------------------------------------------

 ----------
 [No Title]
 ----------
 Symbolic Z-matrix:
 Charge =  2 Multiplicity = 1

 SCF Done:  E(RwB97XD) =  -2879.36402316     A.U. after   28 cycles
 SCF Done:  E(RwB97XD) =  -2879.36521735     A.U. after   20 cycles
 SCF Done:  E(RwB97XD) =  -2879.36540661     A.U. after   19 cycles
 SCF Done:  E(RwB97XD) =  -2879.36544552     A.U. after   16 cycles
 SCF Done:  E(RwB97XD) =  -2879.36546686     A.U. after   15 cycles
 SCF Done:  E(RwB97XD) =  -2879.36547752     A.U. after   15 cycles
 SCF Done:  E(RwB97XD) =  -2879.36548069     A.U. after   15 cycles
 SCF Done:  E(RwB97XD) =  -2879.36548156     A.U. after   14 cycles
 SCF Done:  E(RwB97XD) =  -2879.36548191     A.U. after   14 cycles
 SCF Done:  E(RwB97XD) =  -2879.36548248     A.U. after   15 cycles
 SCF Done:  E(RwB97XD) =  -2879.36549507     A.U. after   16 cycles
 SCF Done:  E(RwB97XD) =  -2879.36549018     A.U. after   17 cycles
 SCF Done:  E(RwB97XD) =  -2879.36548388     A.U. after   16 cycles
 SCF Done:  E(RwB97XD) =  -2879.36549504     A.U. after   17 cycles
 SCF Done:  E(RwB97XD) =  -2879.36548629     A.U. after   17 cycles
 SCF Done:  E(RwB97XD) =  -2879.36548524     A.U. after   15 cycles
 SCF Done:  E(RwB97XD) =  -2879.36549506     A.U. after   17 cycles
 SCF Done:  E(RwB97XD) =  -2879.36548413     A.U. after   17 cycles
 SCF Done:  E(RwB97XD) =  -2879.36548398     A.U. after   11 cycles
 Optimization completed.
    -- Stationary point found.
 Normal termination of Gaussian 16 at Fri Jan 14 18:32:47 2022.

 --------------------------------------------------------------------
 #N Geom=AllCheck Guess=TCheck SCRF=Check GenChk RwB97XD/def2SVP Freq
 --------------------------------------------------------------------

 Structure from the checkpoint file:  "hhtc_ni_smd.chk"
 ----------
 [No Title]
 ----------
 Charge =  2 Multiplicity = 1

                         Standard orientation:
 ---------------------------------------------------------------------
 Center     Atomic      Atomic             Coordinates (Angstroms)
 Number     Number       Type             X           Y           Z
 ---------------------------------------------------------------------
      1          6           0       -0.631817    4.185448   -0.047369
      2          6           0       -0.640548    2.810324   -0.004075
      3          6           0       -1.898957    2.085290    0.035512
      4          6           0       -3.139202    2.785992    0.043205
      5          6           0       -3.124688    4.152699    0.007483
      6          6           0       -1.867176    4.862393   -0.046385
      7          6           0        0.533591    1.972805   -0.001517
      8          6           0        1.587548    1.313156   -0.006208
      9          6           0        2.838168    0.611263   -0.009875
     10          6           0        4.075750    1.269068   -0.047087
     11          6           0        5.246039    0.525712   -0.042884
     12          6           0        5.199286   -0.895450   -0.001490
     13          6           0        3.976752   -1.552280    0.031554
     14          6           0        2.790213   -0.809132    0.027880
     15          6           0        1.491667   -1.420855    0.053246
     16          6           0        0.396396   -2.008908    0.063221
     17          6           0       -0.832794   -2.765104    0.039561
     18          6           0       -0.918055   -4.137094    0.000922
     19          6           0       -2.196806   -4.727800   -0.041882
     20          6           0       -3.403513   -3.933505   -0.046373
     21          6           0       -3.323333   -2.568647   -0.005497
     22          6           0       -2.038438   -1.955279    0.037882
     23          6           0       -1.711633    0.720148    0.054506
     24          6           0       -1.758245   -0.606076    0.062726
     25          8           0       -4.186342    4.960400    0.013023
     26          8           0       -1.874141    6.164395   -0.094750
     27          8           0        6.480213    1.043600   -0.072654
     28          8           0        6.333523   -1.598107    0.006291
     29          8           0       -2.286896   -6.027096   -0.077598
     30          8           0       -4.519307   -4.664213   -0.092635
     31          1           0        0.290602    4.765036   -0.083429
     32          1           0       -4.081033    2.236101    0.077197
     33          1           0        4.124325    2.359181   -0.076645
     34          1           0        3.955674   -2.642365    0.061396
     35          1           0       -0.037232   -4.779332   -0.001059
     36          1           0       -4.225982   -1.955259   -0.007847
     37          1           0       -5.020475    4.470405    0.064347
     38          1           0       -2.787667    6.507726   -0.093953
     39          1           0        6.465859    2.011204   -0.082063
     40          1           0        7.092469   -0.994280   -0.014812
     41          1           0       -3.219555   -6.312500   -0.101882
     42          1           0       -5.318794   -4.117936   -0.065429
     43         28           0       -0.025565   -0.002315    0.068872
 ---------------------------------------------------------------------

 SCF Done:  E(RwB97XD) =  -2879.36548398     A.U. after    1 cycles

 The electronic state is 1-A.
 Alpha  occ. eigenvalues -- -300.10209 -35.96646 -31.39208 -31.38141 -31.37108
 Alpha  occ. eigenvalues --  -19.35143 -19.35138 -19.32919 -19.32884 -19.31775
 Alpha  occ. eigenvalues --  -19.31056 -10.44281 -10.44276 -10.41441 -10.41438
 Alpha  occ. eigenvalues --  -10.39991 -10.39901 -10.39798 -10.39679 -10.39642
 Alpha  occ. eigenvalues --  -10.39613 -10.38210 -10.38186 -10.37407 -10.37353
 Alpha  occ. eigenvalues --  -10.37086 -10.37078 -10.36850 -10.36808 -10.35483
 Alpha  occ. eigenvalues --  -10.35461 -10.35173 -10.35168 -10.33691 -10.33356
 Alpha  occ. eigenvalues --   -4.14517  -2.74888  -2.72856  -2.70527  -1.23638
 Alpha  occ. eigenvalues --   -1.23602  -1.20079  -1.19242  -1.19205  -1.16907
 Alpha  occ. eigenvalues --   -1.02769  -1.01906  -1.00363  -0.95589  -0.93807
 Alpha  occ. eigenvalues --   -0.93726  -0.91362  -0.90465  -0.90001  -0.87687
 Alpha  occ. eigenvalues --   -0.86921  -0.85523  -0.80105  -0.79556  -0.79348
 Alpha  occ. eigenvalues --   -0.77429  -0.77233  -0.76032  -0.72328  -0.71834
 Alpha  occ. eigenvalues --   -0.69634  -0.69156  -0.69093  -0.67799  -0.66148
 Alpha  occ. eigenvalues --   -0.64987  -0.64279  -0.63901  -0.62563  -0.62266
 Alpha  occ. eigenvalues --   -0.58669  -0.58599  -0.58480  -0.58179  -0.56936
 Alpha  occ. eigenvalues --   -0.56910  -0.56204  -0.56143  -0.55420  -0.54958
 Alpha  occ. eigenvalues --   -0.54302  -0.53671  -0.52779  -0.51595  -0.51572
 Alpha  occ. eigenvalues --   -0.51266  -0.50967  -0.50931  -0.50730  -0.49475
 Alpha  occ. eigenvalues --   -0.49087  -0.48871  -0.48291  -0.47008  -0.46054
 Alpha  occ. eigenvalues --   -0.45621  -0.45110  -0.45019  -0.44690  -0.40284
 Alpha  occ. eigenvalues --   -0.39009  -0.38786  -0.37483  -0.37379  -0.37220
 Alpha  occ. eigenvalues --   -0.36175  -0.33588  -0.33017  -0.32307  -0.30071
 Alpha virt. eigenvalues --   -0.14609  -0.06518  -0.01330  -0.00181   0.03395
 Alpha virt. eigenvalues --    0.04437   0.04591   0.04913   0.06085   0.06643
 Alpha virt. eigenvalues --    0.07657   0.12636   0.12724   0.12801   0.13590

 Mulliken charges:
               1
     1  C   -0.048966
     2  C    0.043386
     3  C   -0.063426
     4  C   -0.025325
     5  C    0.169894
     6  C    0.173568
     7  C    0.070960
     8  C    0.077903
     9  C   -0.023833
    10  C   -0.074261
    11  C    0.153845
    12  C    0.140111
    13  C   -0.079416
    14  C   -0.009633
    15  C    0.074461
    16  C    0.074930
    17  C    0.043427
    18  C   -0.047218
    19  C    0.173237
    20  C    0.169787
    21  C   -0.024849
    22  C   -0.062805
    23  C    0.167610
    24  C    0.167767
    25  O   -0.224746
    26  O   -0.116528
    27  O   -0.229523
    28  O   -0.200398
    29  O   -0.116187
    30  O   -0.225120
    31  H    0.076975
    32  H    0.073508
    33  H    0.058541
    34  H    0.056191
    35  H    0.077769
    36  H    0.073737
    37  H    0.263036
    38  H    0.255970
    39  H    0.254565
    40  H    0.233005
    41  H    0.256286
    42  H    0.262802
    43  Ni  -0.071036
 Sum of Mulliken charges =   2.00000

 Dipole moment (field-independent basis, Debye):
    X=            -13.2108    Y=              3.8296    Z=             -0.0455  Tot=             13.7547
 Quadrupole moment (field-independent basis, Debye-Ang):
   XX=            -12.3320   YY=            -41.2573   ZZ=           -181.2164
   XY=             20.4832   XZ=             -0.7477   YZ=              0.0241

  Exact polarizability: 853.351  16.3641301.982   0.637  -1.785 163.168
 Approx polarizability: 564.979   3.564 731.988   0.068  -1.878 154.122

                      1                      2                      3
                      A                      A                      A
 Frequencies --     20.9994                32.9372                43.0500
 Red. masses --     13.4239                 6.5434                 6.3674
 Frc consts  --      0.0035                 0.0042                 0.0070
 IR Inten    --      0.7993                 0.1535                 2.0875

                      4                      5                      6
                      A                      A                      A
 Frequencies --     68.1735                88.3866                90.2864
 Red. masses --      6.3531                 8.2218                11.2925
 Frc consts  --      0.0174                 0.0378                 0.0542
 IR Inten    --      0.1672                 1.1126                 3.3196

                      7                      8                      9
                      A                      A                      A
 Frequencies --     93.9436                98.2865               115.9414
 Red. masses --      8.5200                 8.2148                10.7142
 Frc consts  --      0.0443                 0.0468                 0.0849
 IR Inten    --      0.7214                 0.9399                 0.7054

                     10                     11                     12
                      A                      A                      A
 Frequencies --    161.9484               178.5792               204.7045
 Red. masses --      6.6002                 7.6991                 5.1689
 Frc consts  --      0.1020                 0.1447                 0.1276
 IR Inten    --      7.4092                 3.9492                 0.8577

                     13                     14                     15
                      A                      A                      A
 Frequencies --    212.7606               234.2664               249.8413
 Red. masses --      7.5202                 9.9586                 8.0859
 Frc consts  --      0.2006                 0.3220                 0.2974
 IR Inten    --     33.7728                56.4866                16.0633

                     16                     17                     18
                      A                      A                      A
 Frequencies --    251.5499               258.2006               269.3526
 Red. masses --      9.1209                 7.6258                 5.3354
 Frc consts  --      0.3400                 0.2995                 0.2281
 IR Inten    --      1.0530                 0.7570                 2.3497

                     19                     20                     21
                      A                      A                      A
 Frequencies --    286.7098               296.2416               301.3732
 Red. masses --      4.2639                 7.2754                 5.1801
 Frc consts  --      0.2065                 0.3762                 0.2772
 IR Inten    --     31.6628                18.2500                 6.4021

                     22                     23                     24
                      A                      A                      A
 Frequencies --    306.3760               315.6266               322.6200
 Red. masses --     10.2152                 6.5812                 8.5368
 Frc consts  --      0.5649                 0.3863                 0.5235
 IR Inten    --     15.8557                29.5168                26.2625

                     25                     26                     27
                      A                      A                      A
 Frequencies --    332.9490               341.8268               361.0714
 Red. masses --      1.2965                 1.2289                 3.8098
 Frc consts  --      0.0847                 0.0846                 0.2926
 IR Inten    --    243.4325                94.6754                64.5040

                     28                     29                     30
                      A                      A                      A
 Frequencies --    393.8383               411.7267               432.1482
 Red. masses --      6.8598                 8.9979                 1.5877
 Frc consts  --      0.6269                 0.8987                 0.1747
 IR Inten    --      1.8929                15.2073               218.2993

                     31                     32                     33
                      A                      A                      A
 Frequencies --    432.4938               435.7630               454.9865
 Red. masses --      3.5615                 6.9683                 3.4772
 Frc consts  --      0.3925                 0.7796                 0.4241
 IR Inten    --    238.9158               170.2078                 6.6952

                     34                     35                     36
                      A                      A                      A
 Frequencies --    457.3069               469.8148               478.6403
 Red. masses --      3.5910                 2.3753                 7.9595
 Frc consts  --      0.4425                 0.3089                 1.0744
 IR Inten    --      0.7611                99.5408                16.6412

                     37                     38                     39
                      A                      A                      A
 Frequencies --    483.1617               489.0036               492.1834
 Red. masses --      6.7262                 8.6136                 8.8641
 Frc consts  --      0.9251                 1.2136                 1.2651
 IR Inten    --      8.9933                13.0830               155.0577

                     40                     41                     42
                      A                      A                      A
 Frequencies --    501.4270               554.3336               555.9644
 Red. masses --      1.1660                 7.6178                 8.0535
 Frc consts  --      0.1727                 1.3792                 1.4667
 IR Inten    --      2.3774                36.6726                 0.4287

                     43                     44                     45
                      A                      A                      A
 Frequencies --    569.3559               573.6391               611.4507
 Red. masses --      7.8880                 8.2665                 6.3200
 Frc consts  --      1.5065                 1.6027                 1.3922
 IR Inten    --     72.4239                 0.3513               640.4811

                     46                     47                     48
                      A                      A                      A
 Frequencies --    616.4216               628.1227               629.8726
 Red. masses --      1.2094                 8.2112                 6.3052
 Frc consts  --      0.2708                 1.9087                 1.4739
 IR Inten    --    139.6927               243.1562                80.7186

                     49                     50                     51
                      A                      A                      A
 Frequencies --    640.9362               658.2349               677.6642
 Red. masses --      1.0975                 7.6872                 5.5886
 Frc consts  --      0.2656                 1.9624                 1.5121
 IR Inten    --    143.0384                 1.6109               115.4495

                     52                     53                     54
                      A                      A                      A
 Frequencies --    681.2915               685.6725               686.8555
 Red. masses --      8.8401                 6.6425                 8.8693
 Frc consts  --      2.4175                 1.8400                 2.4653
 IR Inten    --      2.0655                35.8303                 0.9191

                     55                     56                     57
                      A                      A                      A
 Frequencies --    690.3190               706.5650               707.5958
 Red. masses --      5.8514                 9.0542                 6.6701
 Frc consts  --      1.6429                 2.6632                 1.9677
 IR Inten    --     32.8405                14.5162               457.8276

                     58                     59                     60
                      A                      A                      A
 Frequencies --    716.8431               733.1546               738.9872
 Red. masses --      5.7542                 6.5248                 6.5578
 Frc consts  --      1.7422                 2.0664                 2.1100
 IR Inten    --      0.3938                 7.8230                 9.6314

                     61                     62                     63
                      A                      A                      A
 Frequencies --    756.4242               777.3080               780.7315
 Red. masses --      8.7449                 7.3444                 7.3709
 Frc consts  --      2.9481                 2.6145                 2.6471
 IR Inten    --    178.4007                 3.4041                 2.2602

                     64                     65                     66
                      A                      A                      A
 Frequencies --    841.9737               888.4887               893.5153
 Red. masses --      4.0345                 1.3538                 1.3217
 Frc consts  --      1.6851                 0.6297                 0.6217
 IR Inten    --     12.0859                 4.9919                 2.6870

                     67                     68                     69
                      A                      A                      A
 Frequencies --    899.5920               900.4614               903.3932
 Red. masses --      3.1860                 1.3295                 3.1539
 Frc consts  --      1.5191                 0.6351                 1.5165
 IR Inten    --     96.3491                 3.1954                45.0614

                     70                     71                     72
                      A                      A                      A
 Frequencies --    918.5586               921.5763               927.5126
 Red. masses --      1.4465                 1.4437                 1.4323
 Frc consts  --      0.7191                 0.7224                 0.7260
 IR Inten    --     68.4618                79.0380                79.5120

                     73                     74                     75
                      A                      A                      A
 Frequencies --   1065.0925              1075.7325              1122.2866
 Red. masses --      4.9767                 5.3625                 2.1194
 Frc consts  --      3.3264                 3.6562                 1.5728
 IR Inten    --      2.3806                40.8956               406.2873

                     76                     77                     78
                      A                      A                      A
 Frequencies --   1145.7113              1159.9636              1172.4918
 Red. masses --      1.5204                 1.4403                 1.3543
 Frc consts  --      1.1759                 1.1418                 1.0969
 IR Inten    --   4145.3393              1544.1337              1376.3925

                     79                     80                     81
                      A                      A                      A
 Frequencies --   1179.8339              1196.4395              1207.3735
 Red. masses --      1.3575                 1.5628                 1.3670
 Frc consts  --      1.1134                 1.3181                 1.1741
 IR Inten    --    622.5599               508.7092               126.8500

                     82                     83                     84
                      A                      A                      A
 Frequencies --   1235.1110              1238.0202              1246.3411
 Red. masses --      1.9238                 1.7297                 1.8897
 Frc consts  --      1.7291                 1.5620                 1.7295
 IR Inten    --     18.7606                46.2753                38.3716

                     85                     86                     87
                      A                      A                      A
 Frequencies --   1260.1284              1269.1400              1293.4756
 Red. masses --      3.3165                 1.9473                 2.4157
 Frc consts  --      3.1028                 1.8480                 2.3813
 IR Inten    --      1.6571               161.3575               154.4390

                     88                     89                     90
                      A                      A                      A
 Frequencies --   1349.6240              1368.4109              1377.7474
 Red. masses --      2.8903                 3.0860                 4.4287
 Frc consts  --      3.1018                 3.4047                 4.9529
 IR Inten    --    363.5269              2094.1595              6488.0970

                     91                     92                     93
                      A                      A                      A
 Frequencies --   1387.2516              1400.1941              1407.4550
 Red. masses --      2.5068                 2.8965                 3.1749
 Frc consts  --      2.8424                 3.3458                 3.7055
 IR Inten    --    509.9990              1626.4820              1457.8571

                     94                     95                     96
                      A                      A                      A
 Frequencies --   1425.9204              1438.7333              1443.9726
 Red. masses --      5.0949                 6.3875                 5.1206
 Frc consts  --      6.1035                 7.7900                 6.2905
 IR Inten    --    451.4598               810.2982              4461.3899

                     97                     98                     99
                      A                      A                      A
 Frequencies --   1510.1524              1531.4054              1551.4133
 Red. masses --      6.1066                 6.5943                 5.2518
 Frc consts  --      8.2052                 9.1116                 7.4475
 IR Inten    --    882.1782                44.7749              1972.4226

                    100                    101                    102
                      A                      A                      A
 Frequencies --   1554.7119              1578.9787              1584.2732
 Red. masses --      5.9346                 7.3936                 5.2446
 Frc consts  --      8.4517                10.8607                 7.7557
 IR Inten    --   1690.7018               408.3205               309.7349

                    103                    104                    105
                      A                      A                      A
 Frequencies --   1598.9533              1603.0513              1633.6769
 Red. masses --      6.2922                 6.8399                 6.9679
 Frc consts  --      9.4781                10.3560                10.9569
 IR Inten    --   1512.4291              2040.7997               107.1424

                    106                    107                    108
                      A                      A                      A
 Frequencies --   1668.4941              1672.1182              1678.4737
 Red. masses --      8.1013                 8.0338                 7.2372
 Frc consts  --     13.2878                13.2344                12.0130
 IR Inten    --    357.7368               290.3893                13.6185

                    109                    110                    111
                      A                      A                      A
 Frequencies --   1893.5162              2142.1526              2158.2919
 Red. masses --     11.8979                11.9793                11.9870
 Frc consts  --     25.1338                32.3880                32.8990
 IR Inten    --     22.5509               923.1978               443.7850

                    112                    113                    114
                      A                      A                      A
 Frequencies --   3235.7464              3241.7127              3243.4019
 Red. masses --      1.0954                 1.0961                 1.0961
 Frc consts  --      6.7574                 6.7868                 6.7936
 IR Inten    --      9.2254                22.0385                21.0320

                    115                    116                    117
                      A                      A                      A
 Frequencies --   3243.9908              3253.7186              3255.4472
 Red. masses --      1.0955                 1.0969                 1.0968
 Frc consts  --      6.7921                 6.8420                 6.8485
 IR Inten    --      9.1560                 7.2231                 6.4241

                    118                    119                    120
                      A                      A                      A
 Frequencies --   3708.5176              3714.8363              3804.8247
 Red. masses --      1.0655                 1.0658                 1.0657
 Frc consts  --      8.6336                 8.6657                 9.0898
 IR Inten    --   2291.9158              1590.3552               656.4626

                    121                    122                    123
                      A                      A                      A
 Frequencies --   3818.9797              3830.5938              3853.6988
 Red. masses --      1.0670                 1.0664                 1.0662
 Frc consts  --      9.1687                 9.2190                 9.3293
 IR Inten    --    496.1126               540.1431               539.1193

 - Thermochemistry -
 -------------------
 Temperature   298.150 Kelvin.  Pressure   1.00000 Atm.
 Atom     1 has atomic number  6 and mass  12.00000

 Molecular mass:   453.99874 amu.
 Principal axes and moments of inertia in atomic units:
                           1         2         3
     Eigenvalues --  ******************************
           X            0.99900   0.04481  -0.00009
           Y           -0.04481   0.99900  -0.00003
           Z            0.00009   0.00003   1.00000
 This molecule is an asymmetric top.
 Rotational symmetry number  1.
 Warning -- assumption of classical behavior for rotation
           may cause significant error
 Rotational temperatures (Kelvin)      0.00574     0.00552     0.00282
 Rotational constants (GHZ):           0.11966     0.11510     0.05868
 Zero-point vibrational energy     795366.5 (Joules/Mol)
                                  190.09715 (Kcal/Mol)
 Warning -- explicit consideration of  46 degrees of freedom as
           vibrations may cause significant error
 Vibrational temperatures:     30.21    47.39    61.94    98.09   127.17
          (Kelvin)            129.90   135.16   141.41   166.81   233.01
                              256.94   294.52   306.12   337.06   359.47
                              361.92   371.49   387.54   412.51   426.23
                              433.61   440.81   454.12   464.18   479.04
                              491.81   519.50   566.65   592.38   621.76
                              622.26   626.97   654.62   657.96   675.96
                              688.66   695.16   703.57   708.14   721.44
                              797.56   799.91   819.18   825.34   879.74
                              886.89   903.73   906.25   922.16   947.05
                              975.01   980.23   986.53   988.23   993.22
                             1016.59  1018.07  1031.38  1054.85  1063.24
                             1088.33  1118.37  1123.30  1211.41  1278.34
                             1285.57  1294.31  1295.56  1299.78  1321.60
                             1325.94  1334.48  1532.43  1547.74  1614.72
                             1648.42  1668.93  1686.95  1697.52  1721.41
                             1737.14  1777.05  1781.23  1793.21  1813.04
                             1826.01  1861.02  1941.81  1968.84  1982.27
                             1995.95  2014.57  2025.01  2051.58  2070.02
                             2077.55  2172.77  2203.35  2232.14  2236.88
                             2271.80  2279.42  2300.54  2306.43  2350.50
                             2400.59  2405.81  2414.95  2724.35  3082.08
                             3105.30  4655.52  4664.10  4666.53  4667.38
                             4681.38  4683.86  5335.73  5344.82  5474.29
                             5494.66  5511.37  5544.61

 Zero-point correction=                           0.302939 (Hartree/Particle)
 Thermal correction to Energy=                    0.328413
 Thermal correction to Enthalpy=                  0.329357
 Thermal correction to Gibbs Free Energy=         0.248305
 Sum of electronic and zero-point Energies=          -2879.062545
 Sum of electronic and thermal Energies=             -2879.037071
 Sum of electronic and thermal Enthalpies=           -2879.036127
 Sum of electronic and thermal Free Energies=        -2879.117179

                     E (Thermal)             CV                S
                      KCal/Mol        Cal/Mol-Kelvin    Cal/Mol-Kelvin
 Total                  206.082            102.050            170.587
 Electronic               0.000              0.000              0.000
 Translational            0.889              2.981             44.228
 Rotational               0.889              2.981             37.229
 Vibrational            204.305             96.088             89.131
 Vibration     1          0.593              1.986              6.537
 Vibration     2          0.594              1.983              5.644
 Vibration     3          0.595              1.980              5.114
 Vibration     4          0.598              1.969              4.205
 Vibration     5          0.601              1.957              3.695
 Vibration     6          0.602              1.956              3.654
 Vibration     7          0.603              1.954              3.576
 Vibration     8          0.604              1.950              3.488
 Vibration     9          0.608              1.936              3.167
 Vibration    10          0.622              1.889              2.527
 Vibration    11          0.629              1.869              2.343
 Vibration    12          0.640              1.833              2.090
 Vibration    13          0.644              1.821              2.020
 Vibration    14          0.654              1.788              1.846
 Vibration    15          0.663              1.763              1.732
 Vibration    16          0.664              1.760              1.720
 Vibration    17          0.667              1.749              1.674
 Vibration    18          0.674              1.730              1.600
 Vibration    19          0.684              1.698              1.493
 Vibration    20          0.690              1.681              1.438
 Vibration    21          0.693              1.671              1.409
 Vibration    22          0.697              1.662              1.382
 Vibration    23          0.703              1.644              1.333
 Vibration    24          0.708              1.630              1.297
 Vibration    25          0.715              1.610              1.246
 Vibration    26          0.721              1.592              1.204
 Vibration    27          0.735              1.552              1.117
 Vibration    28          0.761              1.483              0.986
 Vibration    29          0.776              1.445              0.921
 Vibration    30          0.793              1.400              0.852
 Vibration    31          0.793              1.399              0.851
 Vibration    32          0.796              1.392              0.840
 Vibration    33          0.813              1.350              0.781
 Vibration    34          0.815              1.345              0.774
 Vibration    35          0.827              1.317              0.738
 Vibration    36          0.835              1.297              0.714
 Vibration    37          0.839              1.287              0.702
 Vibration    38          0.845              1.274              0.686
 Vibration    39          0.848              1.267              0.678
 Vibration    40          0.857              1.247              0.655
 Vibration    41          0.910              1.130              0.535
 Vibration    42          0.911              1.127              0.532
 Vibration    43          0.925              1.098              0.505
 Vibration    44          0.930              1.088              0.497
 Vibration    45          0.971              1.008              0.430
 Vibration    46          0.976              0.997              0.422

 Optimization completed.
    -- Stationary point found.
 Normal termination of Gaussian 16 at Fri Jan 14 18:46:46 2022.
