 Gaussian 16, Revision A.03,
 Gaussian 16:  ES64L-G16RevA.03 25-Dec-2016

 --------------------------------------------------------------
 #opt freq wb97xd def2svp scf=xqc scrf=(smd,solvent=2-propanol)
 --------------------------------------------------------------

 ----------
 [No Title]
 ----------
 Symbolic Z-matrix:
 Charge =  2 Multiplicity = 3

 SCF Done:  E(UwB97XD) =  -2879.38066224     A.U. after   33 cycles
 SCF Done:  E(UwB97XD) =  -2879.38415868     a.u. after   16 cycles
 SCF Done:  E(UwB97XD) =  -2879.39946159     A.U. after   27 cycles
 SCF Done:  E(UwB97XD) =  -2879.40572283     A.U. after   31 cycles
 SCF Done:  E(UwB97XD) =  -2879.40682589     A.U. after   33 cycles
 SCF Done:  E(UwB97XD) =  -2879.40682589     a.u. after    1 cycles
 SCF Done:  E(UwB97XD) =  -2879.40729267     A.U. after   33 cycles
 SCF Done:  E(UwB97XD) =  -2879.40729267     a.u. after    1 cycles
 SCF Done:  E(UwB97XD) =  -2879.40768954     A.U. after   33 cycles
 SCF Done:  E(UwB97XD) =  -2879.40768954     a.u. after    1 cycles
 SCF Done:  E(UwB97XD) =  -2879.40796756     A.U. after   29 cycles
 SCF Done:  E(UwB97XD) =  -2879.40801659     A.U. after   31 cycles
 SCF Done:  E(UwB97XD) =  -2879.40802452     A.U. after   15 cycles
 SCF Done:  E(UwB97XD) =  -2879.40800764     A.U. after   30 cycles
 SCF Done:  E(UwB97XD) =  -2879.40797461     A.U. after   29 cycles
 SCF Done:  E(UwB97XD) =  -2879.40798355     A.U. after   30 cycles
 SCF Done:  E(UwB97XD) =  -2879.40799797     A.U. after   29 cycles
 SCF Done:  E(UwB97XD) =  -2879.40799732     A.U. after   13 cycles
 SCF Done:  E(UwB97XD) =  -2879.40800074     A.U. after   14 cycles
 Optimization completed.
    -- Stationary point found.
 Normal termination of Gaussian 16 at Sat Jan 15 06:23:55 2022.

 --------------------------------------------------------------------
 #N Geom=AllCheck Guess=TCheck SCRF=Check GenChk UwB97XD/def2SVP Freq
 --------------------------------------------------------------------

 Structure from the checkpoint file:  "hhtc_ni_smd.chk"
 ----------
 [No Title]
 ----------
 Charge =  2 Multiplicity = 3

                         Standard orientation:
 ---------------------------------------------------------------------
 Center     Atomic      Atomic             Coordinates (Angstroms)
 Number     Number       Type             X           Y           Z
 ---------------------------------------------------------------------
      1          6           0        0.422057    4.209198    0.006833
      2          6           0        0.039572    2.879254    0.001955
      3          6           0       -1.377032    2.519192   -0.002880
      4          6           0       -2.356598    3.510609   -0.006065
      5          6           0       -1.967616    4.843794   -0.003396
      6          6           0       -0.562878    5.201287    0.005525
      7          6           0        0.980997    1.802210    0.001455
      8          6           0        1.854719    0.910311    0.001000
      9          6           0        2.885814   -0.082915    0.000192
     10          6           0        4.249680    0.255320   -0.000874
     11          6           0        5.204727   -0.747599   -0.002108
     12          6           0        4.813212   -2.113772   -0.002210
     13          6           0        3.465821   -2.456515   -0.001009
     14          6           0        2.493622   -1.453681    0.000145
     15          6           0        1.084441   -1.757169    0.000939
     16          6           0       -0.121829   -2.059429    0.001111
     17          6           0       -1.508348   -2.453217    0.000793
     18          6           0       -1.902569   -3.791352    0.002795
     19          6           0       -3.256927   -4.112868    0.002661
     20          6           0       -4.240931   -3.084465    0.000578
     21          6           0       -3.861788   -1.754943   -0.001744
     22          6           0       -2.494945   -1.420786   -0.001543
     23          6           0       -1.689896    1.132532   -0.003582
     24          6           0       -2.042244   -0.069529   -0.003152
     25          8           0       -2.774868    5.880745   -0.007740
     26          8           0       -0.219935    6.462296    0.012063
     27          8           0        6.530016   -0.546620   -0.003359
     28          8           0        5.739622   -3.071331   -0.003474
     29          8           0       -3.632418   -5.388338    0.004610
     30          8           0       -5.506532   -3.523748    0.001067
     31          1           0        1.472332    4.500555    0.011852
     32          1           0       -3.416646    3.252812   -0.010855
     33          1           0        4.559507    1.302038   -0.000900
     34          1           0        3.184257   -3.510124   -0.001137
     35          1           0       -1.165169   -4.595047    0.004545
     36          1           0       -4.621271   -0.970666   -0.003400
     37          1           0       -3.716517    5.640501   -0.012456
     38          1           0       -1.004643    7.041403    0.008826
     39          1           0        6.750961    0.394811   -0.003013
     40          1           0        6.624029   -2.672192   -0.004351
     41          1           0       -4.601623   -5.445564    0.004047
     42          1           0       -6.140661   -2.792747    0.000199
     43         28           0        0.011500   -0.002950   -0.000115
 ---------------------------------------------------------------------

 SCF Done:  E(UwB97XD) =  -2879.40800074     A.U. after    1 cycles

 The electronic state is 3-A.
 Alpha  occ. eigenvalues -- -300.13628 -36.01097 -31.43647 -31.41772 -31.41735
 Alpha  occ. eigenvalues --  -19.35469 -19.35351 -19.31809 -19.31667 -19.31655
 Alpha  occ. eigenvalues --  -19.31292 -10.44063 -10.43898 -10.40537 -10.40336
 Alpha  occ. eigenvalues --  -10.40283 -10.39862 -10.39838 -10.39659 -10.38983
 Alpha  occ. eigenvalues --  -10.38633 -10.37943 -10.37706 -10.37588 -10.37372
 Alpha  occ. eigenvalues --  -10.37279 -10.37213 -10.37185 -10.37022 -10.35412
 Alpha  occ. eigenvalues --  -10.35270 -10.34087 -10.33911 -10.33576 -10.33407
 Alpha  occ. eigenvalues --   -4.21205  -2.82108  -2.78408  -2.78357  -1.24593
 Alpha  occ. eigenvalues --   -1.21350  -1.20470  -1.20165  -1.17284  -1.17005
 Alpha  occ. eigenvalues --   -1.03007  -1.01057  -1.00454  -0.95217  -0.94556
 Alpha  occ. eigenvalues --   -0.93642  -0.91037  -0.90794  -0.89365  -0.87473
 Alpha  occ. eigenvalues --   -0.87019  -0.85599  -0.80703  -0.79450  -0.78393
 Alpha  occ. eigenvalues --   -0.77052  -0.76352  -0.76016  -0.72450  -0.70851
 Alpha  occ. eigenvalues --   -0.70689  -0.68705  -0.68397  -0.67931  -0.65918
 Alpha  occ. eigenvalues --   -0.65737  -0.63584  -0.63084  -0.62869  -0.62232
 Alpha  occ. eigenvalues --   -0.60144  -0.58933  -0.57198  -0.56698  -0.56626
 Alpha  occ. eigenvalues --   -0.56382  -0.56372  -0.55574  -0.55241  -0.55030
 Alpha  occ. eigenvalues --   -0.53868  -0.53586  -0.53513  -0.52984  -0.52243
 Alpha  occ. eigenvalues --   -0.51825  -0.51727  -0.50513  -0.49662  -0.49534
 Alpha  occ. eigenvalues --   -0.49517  -0.49237  -0.48686  -0.47946  -0.47427
 Alpha  occ. eigenvalues --   -0.46984  -0.46516  -0.46331  -0.46157  -0.44318
 Alpha  occ. eigenvalues --   -0.42732  -0.42209  -0.40817  -0.39432  -0.39366
 Alpha  occ. eigenvalues --   -0.38055  -0.35750  -0.35452  -0.32792  -0.31830
 Alpha  occ. eigenvalues --   -0.29336
 Alpha virt. eigenvalues --   -0.06631  -0.01444  -0.00901   0.03106   0.03653
 Alpha virt. eigenvalues --    0.03921   0.04542   0.04661   0.06204   0.06605
 Alpha virt. eigenvalues --    0.12234   0.12709   0.13340   0.13589   0.13748

  Beta  occ. eigenvalues -- -300.13583 -35.98527 -31.40317 -31.40282 -31.40268
  Beta  occ. eigenvalues --  -19.35241 -19.35068 -19.31807 -19.31661 -19.31585
  Beta  occ. eigenvalues --  -19.31249 -10.43828 -10.43681 -10.40292 -10.40190
  Beta  occ. eigenvalues --  -10.40147 -10.39847 -10.39804 -10.39657 -10.38837
  Beta  occ. eigenvalues --  -10.38533 -10.38030 -10.37778 -10.37504 -10.37374
  Beta  occ. eigenvalues --  -10.37229 -10.37223 -10.37187 -10.37024 -10.35559
  Beta  occ. eigenvalues --  -10.35383 -10.34075 -10.33907 -10.33621 -10.33438
  Beta  occ. eigenvalues --   -4.15901  -2.74174  -2.74158  -2.73237  -1.23981
  Beta  occ. eigenvalues --   -1.20752  -1.20372  -1.20103  -1.17203  -1.16946
  Beta  occ. eigenvalues --   -1.02519  -1.00888  -1.00337  -0.94815  -0.94377
  Beta  occ. eigenvalues --   -0.93555  -0.90869  -0.90315  -0.89301  -0.87331
  Beta  occ. eigenvalues --   -0.86754  -0.85293  -0.80384  -0.79225  -0.78327
  Beta  occ. eigenvalues --   -0.76993  -0.76272  -0.75869  -0.72258  -0.70794
  Beta  occ. eigenvalues --   -0.70502  -0.68654  -0.68331  -0.67900  -0.65693
  Beta  occ. eigenvalues --   -0.65408  -0.63450  -0.62999  -0.62806  -0.62114
  Beta  occ. eigenvalues --   -0.58797  -0.58352  -0.57194  -0.56531  -0.56379
  Beta  occ. eigenvalues --   -0.56257  -0.56137  -0.55293  -0.55223  -0.55017
  Beta  occ. eigenvalues --   -0.53215  -0.52877  -0.52702  -0.51979  -0.51914
  Beta  occ. eigenvalues --   -0.51065  -0.50943  -0.49745  -0.49533  -0.49235
  Beta  occ. eigenvalues --   -0.49032  -0.48511  -0.47381  -0.46944  -0.46259
  Beta  occ. eigenvalues --   -0.45987  -0.45778  -0.45317  -0.45097  -0.41409
  Beta  occ. eigenvalues --   -0.40853  -0.39433  -0.37775  -0.37654  -0.37477
  Beta  occ. eigenvalues --   -0.35167  -0.33769  -0.30822  -0.29964
  Beta virt. eigenvalues --   -0.15068  -0.05860  -0.04156  -0.00383  -0.00001
  Beta virt. eigenvalues --    0.03978   0.04639   0.04826   0.05005   0.05245
  Beta virt. eigenvalues --    0.06130   0.07964   0.12395   0.13363   0.13605

 Mulliken charges and spin densities:
               1          2
     1  C   -0.049902  -0.101284
     2  C    0.039917   0.164838
     3  C    0.025915   0.216807
     4  C   -0.049640  -0.132733
     5  C    0.191467   0.172940
     6  C    0.169862   0.192200
     7  C    0.045077  -0.078356
     8  C    0.105259   0.083416
     9  C   -0.035962  -0.001542
    10  C   -0.068501   0.004196
    11  C    0.151420  -0.001123
    12  C    0.143121   0.046619
    13  C   -0.080456  -0.027522
    14  C    0.001592   0.048156
    15  C    0.060917   0.001911
    16  C    0.061078  -0.017064
    17  C    0.007978   0.074859
    18  C   -0.078030  -0.040906
    19  C    0.145185   0.074116
    20  C    0.153482  -0.009941
    21  C   -0.065842   0.011675
    22  C   -0.038853  -0.008736
    23  C    0.050427  -0.096859
    24  C    0.112148   0.119993
    25  O   -0.167954   0.080492
    26  O   -0.118314   0.101888
    27  O   -0.233158   0.002110
    28  O   -0.195226   0.014442
    29  O   -0.188068   0.023604
    30  O   -0.231814   0.001314
    31  H    0.079540   0.002672
    32  H    0.079388   0.004005
    33  H    0.059919  -0.000283
    34  H    0.057904   0.000868
    35  H    0.059906   0.001279
    36  H    0.060812  -0.000619
    37  H    0.277532  -0.002409
    38  H    0.257887  -0.002822
    39  H    0.253043  -0.000088
    40  H    0.233969  -0.000426
    41  H    0.236501  -0.000670
    42  H    0.253992  -0.000081
    43  Ni   0.226481   1.079067
 Sum of Mulliken charges =   2.00000   2.00000

 Dipole moment (field-independent basis, Debye):
    X=             -7.8625    Y=             14.7931    Z=             -0.0175  Tot=             16.7527
 Quadrupole moment (field-independent basis, Debye-Ang):
   XX=            -19.9797   YY=            -54.7698   ZZ=           -180.9683
   XY=            -13.0953   XZ=              0.0681   YZ=             -0.0568

  Exact polarizability: 862.264-107.7831784.848  -0.021   0.148 160.179
 Approx polarizability: 534.048 -23.396 705.367   0.094   0.045 151.644

 ******    1 imaginary frequencies (negative Signs) ******

                      1                      2                      3
                      A                      A                      A
 Frequencies --    -12.6250                26.8605                38.8684
 Red. masses --      6.6334                10.2803                 6.1241
 Frc consts  --      0.0006                 0.0044                 0.0055
 IR Inten    --      2.8781                 1.8187                 1.9067

                      4                      5                      6
                      A                      A                      A
 Frequencies --     70.5134                88.9624                91.1943
 Red. masses --      6.6619                 8.0251                 8.0417
 Frc consts  --      0.0195                 0.0374                 0.0394
 IR Inten    --      0.6038                 2.3263                12.6949

                      7                      8                      9
                      A                      A                      A
 Frequencies --     94.3870               104.9872               127.2281
 Red. masses --      7.7407                 8.4133                14.3483
 Frc consts  --      0.0406                 0.0546                 0.1368
 IR Inten    --      6.2707                 0.0072                 6.5508

                     10                     11                     12
                      A                      A                      A
 Frequencies --    170.1908               185.5574               210.4245
 Red. masses --      6.6321                 6.8903                 7.3775
 Frc consts  --      0.1132                 0.1398                 0.1925
 IR Inten    --      1.9723                 0.4636                 9.0906

                     13                     14                     15
                      A                      A                      A
 Frequencies --    218.7265               223.6981               236.2503
 Red. masses --      5.6549                10.0708                 9.3084
 Frc consts  --      0.1594                 0.2969                 0.3061
 IR Inten    --      5.3445               100.0144                 8.1634

                     16                     17                     18
                      A                      A                      A
 Frequencies --    262.1422               264.9864               280.3127
 Red. masses --      5.3493                 8.6103                 3.4595
 Frc consts  --      0.2166                 0.3562                 0.1602
 IR Inten    --      1.5820               111.4989                51.2212

                     19                     20                     21
                      A                      A                      A
 Frequencies --    288.1621               290.2573               291.1648
 Red. masses --     14.4772                 5.9517                 6.2577
 Frc consts  --      0.7083                 0.2954                 0.3126
 IR Inten    --     22.3227                 4.0336                12.8919

                     22                     23                     24
                      A                      A                      A
 Frequencies --    299.5696               312.9371               336.1272
 Red. masses --     10.1149                 1.5909                 5.1332
 Frc consts  --      0.5348                 0.0918                 0.3417
 IR Inten    --     32.0739               163.1272                91.3975

                     25                     26                     27
                      A                      A                      A
 Frequencies --    341.9723               370.9680               389.3193
 Red. masses --      5.5883                 6.7143                 1.8373
 Frc consts  --      0.3850                 0.5444                 0.1641
 IR Inten    --     24.5786                 5.1372               211.0993

                     28                     29                     30
                      A                      A                      A
 Frequencies --    399.1448               417.8051               434.3568
 Red. masses --      2.1309                 8.5677                 7.5977
 Frc consts  --      0.2000                 0.8812                 0.8445
 IR Inten    --     94.0205                54.2436                32.5929

                     31                     32                     33
                      A                      A                      A
 Frequencies --    441.2161               445.3566               464.5536
 Red. masses --      7.8216                 1.9814                 3.4315
 Frc consts  --      0.8971                 0.2315                 0.4363
 IR Inten    --    198.6189                53.2574                 0.0325

                     34                     35                     36
                      A                      A                      A
 Frequencies --    465.3876               480.8614               492.0010
 Red. masses --      2.9698                 1.1425                 3.7539
 Frc consts  --      0.3790                 0.1557                 0.5354
 IR Inten    --     24.2088                37.2762                30.3623

                     37                     38                     39
                      A                      A                      A
 Frequencies --    492.7238               498.2559               500.4152
 Red. masses --     10.0952                 3.1612                 9.8391
 Frc consts  --      1.4440                 0.4624                 1.4517
 IR Inten    --    855.7839               101.2082                24.8279

                     40                     41                     42
                      A                      A                      A
 Frequencies --    505.4830               506.4106               537.8379
 Red. masses --     10.4039                 2.0654                 1.1114
 Frc consts  --      1.5662                 0.3121                 0.1894
 IR Inten    --      7.5059               210.3308               110.2819

                     43                     44                     45
                      A                      A                      A
 Frequencies --    541.3092               552.9571               563.2521
 Red. masses --      1.4264                 6.9569                 4.9866
 Frc consts  --      0.2463                 1.2533                 0.9321
 IR Inten    --     11.0566                51.6901                 2.2428

                     46                     47                     48
                      A                      A                      A
 Frequencies --    568.8952               600.7967               610.8609
 Red. masses --      7.6133                 7.9182                 7.8293
 Frc consts  --      1.4517                 1.6840                 1.7213
 IR Inten    --      0.5342               795.2702               148.7259

                     49                     50                     51
                      A                      A                      A
 Frequencies --    628.9129               632.8070               679.3488
 Red. masses --      7.7830                 8.2291                 5.6236
 Frc consts  --      1.8138                 1.9415                 1.5291
 IR Inten    --    304.3101                10.8873                79.9969

                     52                     53                     54
                      A                      A                      A
 Frequencies --    681.0662               690.4700               693.2707
 Red. masses --      5.6486                 6.6552                 8.7516
 Frc consts  --      1.5437                 1.8694                 2.4782
 IR Inten    --    223.2489                20.5827                 2.6660

                     55                     56                     57
                      A                      A                      A
 Frequencies --    696.8871               708.2251               710.2713
 Red. masses --      8.7070                 5.7020                 8.0546
 Frc consts  --      2.4914                 1.6851                 2.3941
 IR Inten    --      0.0033                34.0023                 0.0197

                     58                     59                     60
                      A                      A                      A
 Frequencies --    716.7677               718.3390               735.6601
 Red. masses --      6.3306                 6.4529                 5.5550
 Frc consts  --      1.9162                 1.9618                 1.7713
 IR Inten    --      0.5615                 0.3610                 1.0231

                     61                     62                     63
                      A                      A                      A
 Frequencies --    754.1350               763.0991               777.5427
 Red. masses --      9.1363                 7.5205                 7.3678
 Frc consts  --      3.0614                 2.5802                 2.6244
 IR Inten    --     46.1886              1009.4731                15.9223

                     64                     65                     66
                      A                      A                      A
 Frequencies --    843.6681               884.4011               886.3058
 Red. masses --      4.1871                 1.3526                 1.3622
 Frc consts  --      1.7559                 0.6233                 0.6305
 IR Inten    --     19.6470                 4.5441                 6.2340

                     67                     68                     69
                      A                      A                      A
 Frequencies --    890.3227               893.0465               896.8758
 Red. masses --      1.3298                 3.3088                 3.2516
 Frc consts  --      0.6211                 1.5548                 1.5411
 IR Inten    --      2.3193               512.7416               107.5929

                     70                     71                     72
                      A                      A                      A
 Frequencies --    910.5555               916.3236               920.1830
 Red. masses --      1.4393                 1.4426                 1.4345
 Frc consts  --      0.7031                 0.7137                 0.7157
 IR Inten    --     84.0068                66.5323                72.9041

                     73                     74                     75
                      A                      A                      A
 Frequencies --   1065.2606              1068.9961              1106.7397
 Red. masses --      4.9579                 5.0290                 2.3334
 Frc consts  --      3.3148                 3.3860                 1.6839
 IR Inten    --   3845.3302               298.1896             13389.9202

                     76                     77                     78
                      A                      A                      A
 Frequencies --   1164.3436              1176.7843              1178.9184
 Red. masses --      1.6277                 1.7825                 1.4020
 Frc consts  --      1.3001                 1.4543                 1.1481
 IR Inten    --   1819.6675              5664.8793               321.5738

                     79                     80                     81
                      A                      A                      A
 Frequencies --   1194.9940              1195.4212              1212.9202
 Red. masses --      1.3479                 1.3426                 1.3330
 Frc consts  --      1.1341                 1.1304                 1.1554
 IR Inten    --     28.9411               188.4899              1022.4211

                     82                     83                     84
                      A                      A                      A
 Frequencies --   1233.7646              1237.7799              1240.5464
 Red. masses --      1.6686                 1.6643                 2.0294
 Frc consts  --      1.4965                 1.5024                 1.8401
 IR Inten    --   2509.0062               552.1395               997.1266

                     85                     86                     87
                      A                      A                      A
 Frequencies --   1256.9293              1262.9021              1267.8164
 Red. masses --      3.1713                 2.0484                 3.0851
 Frc consts  --      2.9519                 1.9248                 2.9217
 IR Inten    --     70.6549              1028.1393               270.4030

                     88                     89                     90
                      A                      A                      A
 Frequencies --   1325.8632              1355.4048              1373.5422
 Red. masses --      3.5820                 3.2994                 2.7572
 Frc consts  --      3.7099                 3.5713                 3.0648
 IR Inten    --  13798.6961              1589.9295                14.1052

                     91                     92                     93
                      A                      A                      A
 Frequencies --   1383.6643              1392.7810              1404.0290
 Red. masses --      2.3028                 4.2982                 3.4458
 Frc consts  --      2.5976                 4.9125                 4.0021
 IR Inten    --    682.3826               851.5540              1001.8784

                     94                     95                     96
                      A                      A                      A
 Frequencies --   1406.6767              1410.6236              1471.6538
 Red. masses --      4.1946                 4.0441                 5.2421
 Frc consts  --      4.8903                 4.7413                 6.6891
 IR Inten    --     75.8783              1184.3157               254.3523

                     97                     98                     99
                      A                      A                      A
 Frequencies --   1490.9143              1509.6401              1517.8723
 Red. masses --      4.3348                 5.3877                 6.5059
 Frc consts  --      5.6771                 7.2344                 8.8314
 IR Inten    --   8083.8783               537.8833              1874.2796

                    100                    101                    102
                      A                      A                      A
 Frequencies --   1526.1381              1557.7306              1580.6351
 Red. masses --      6.0499                 7.8219                 5.4128
 Frc consts  --      8.3021                11.1827                 7.9678
 IR Inten    --     45.8161               257.8544                92.4735

                    103                    104                    105
                      A                      A                      A
 Frequencies --   1583.1960              1589.0968              1627.7855
 Red. masses --      5.5962                 5.9011                 6.6665
 Frc consts  --      8.2644                 8.7798                10.4075
 IR Inten    --   1646.9039               789.3920               363.9629

                    106                    107                    108
                      A                      A                      A
 Frequencies --   1636.1600              1672.0176              1677.2198
 Red. masses --      7.0673                 7.2354                 7.3147
 Frc consts  --     11.1469                11.9177                12.1235
 IR Inten    --    286.4799               361.7451                44.8525

                    109                    110                    111
                      A                      A                      A
 Frequencies --   2035.7422              2105.7368              2169.2343
 Red. masses --     11.8338                11.9501                11.9922
 Frc consts  --     28.8949                31.2198                33.2477
 IR Inten    --   2963.0145              6538.1838                33.2218

                    112                    113                    114
                      A                      A                      A
 Frequencies --   3233.0999              3235.3401              3244.5103
 Red. masses --      1.0954                 1.0953                 1.0957
 Frc consts  --      6.7465                 6.7548                 6.7955
 IR Inten    --     23.2292                16.8755                 9.1715

                    115                    116                    117
                      A                      A                      A
 Frequencies --   3244.8517              3247.5671              3257.0757
 Red. masses --      1.0955                 1.0964                 1.0966
 Frc consts  --      6.7961                 6.8131                 6.8539
 IR Inten    --      8.5934                17.2698                10.4559

                    118                    119                    120
                      A                      A                      A
 Frequencies --   3717.8324              3782.5235              3783.6029
 Red. masses --      1.0658                 1.0664                 1.0668
 Frc consts  --      8.6800                 8.9895                 8.9975
 IR Inten    --   3279.1734              1754.0590              1146.2847

                    121                    122                    123
                      A                      A                      A
 Frequencies --   3794.7644              3843.7243              3855.9891
 Red. masses --      1.0653                 1.0668                 1.0665
 Frc consts  --      9.0388                 9.2865                 9.3430
 IR Inten    --   1005.5950               472.9387               371.6149

 - Thermochemistry -
 -------------------
 Temperature   298.150 Kelvin.  Pressure   1.00000 Atm.
 Atom     1 has atomic number  6 and mass  12.00000

 Molecular mass:   453.99874 amu.
 Principal axes and moments of inertia in atomic units:
                           1         2         3
     Eigenvalues --  ******************************
           X            0.99988  -0.01523   0.00014
           Y            0.01523   0.99988  -0.00006
           Z           -0.00014   0.00006   1.00000
 This molecule is an asymmetric top.
 Rotational symmetry number  1.
 Warning -- assumption of classical behavior for rotation
           may cause significant error
 Rotational temperatures (Kelvin)      0.00563     0.00556     0.00280
 Rotational constants (GHZ):           0.11723     0.11590     0.05828
    1 imaginary frequencies ignored.
 Zero-point vibrational energy     793557.7 (Joules/Mol)
                                  189.66485 (Kcal/Mol)
 Warning -- explicit consideration of  47 degrees of freedom as
           vibrations may cause significant error
 Vibrational temperatures:     38.65    55.92   101.45   128.00   131.21
          (Kelvin)            135.80   151.05   183.05   244.87   266.98
                              302.75   314.70   321.85   339.91   377.16
                              381.26   403.31   414.60   417.62   418.92
                              431.01   450.25   483.61   492.02   533.74
                              560.14   574.28   601.13   624.94   634.81
                              640.77   668.39   669.59   691.85   707.88
                              708.92   716.88   719.99   727.28   728.61
                              773.83   778.82   795.58   810.39   818.51
                              864.41   878.89   904.87   910.47   977.43
                              979.90   993.43   997.46  1002.67  1018.98
                             1021.92  1031.27  1033.53  1058.45  1085.03
                             1097.93  1118.71  1213.85  1272.46  1275.20
                             1280.98  1284.89  1290.40  1310.09  1318.39
                             1323.94  1532.67  1538.05  1592.35  1675.23
                             1693.13  1696.20  1719.33  1719.94  1745.12
                             1775.11  1780.89  1784.87  1808.44  1817.03
                             1824.10  1907.62  1950.13  1976.22  1990.78
                             2003.90  2020.08  2023.89  2029.57  2117.38
                             2145.09  2172.04  2183.88  2195.77  2241.23
                             2274.18  2277.87  2286.36  2342.02  2354.07
                             2405.66  2413.15  2928.98  3029.69  3121.04
                             4651.71  4654.93  4668.13  4668.62  4672.52
                             4686.21  5349.13  5442.21  5443.76  5459.82
                             5530.26  5547.91

 Zero-point correction=                           0.302250 (Hartree/Particle)
 Thermal correction to Energy=                    0.326808
 Thermal correction to Enthalpy=                  0.327752
 Thermal correction to Gibbs Free Energy=         0.248761
 Sum of electronic and zero-point Energies=          -2879.105751
 Sum of electronic and thermal Energies=             -2879.081193
 Sum of electronic and thermal Enthalpies=           -2879.080249
 Sum of electronic and thermal Free Energies=        -2879.159240

                     E (Thermal)             CV                S
                      KCal/Mol        Cal/Mol-Kelvin    Cal/Mol-Kelvin
 Total                  205.075            100.439            166.250
 Electronic               0.000              0.000              2.183
 Translational            0.889              2.981             44.228
 Rotational               0.889              2.981             37.249
 Vibrational            203.297             94.478             82.590
 Vibration     1          0.593              1.984              6.049
 Vibration     2          0.594              1.981              5.316
 Vibration     3          0.598              1.968              4.139
 Vibration     4          0.602              1.957              3.683
 Vibration     5          0.602              1.955              3.634
 Vibration     6          0.603              1.953              3.567
 Vibration     7          0.605              1.945              3.360
 Vibration     8          0.611              1.926              2.988
 Vibration     9          0.625              1.879              2.433
 Vibration    10          0.632              1.860              2.272
 Vibration    11          0.643              1.825              2.040
 Vibration    12          0.646              1.813              1.970
 Vibration    13          0.649              1.805              1.929
 Vibration    14          0.655              1.785              1.831
 Vibration    15          0.669              1.742              1.647
 Vibration    16          0.671              1.737              1.629
 Vibration    17          0.680              1.710              1.532
 Vibration    18          0.685              1.696              1.485
 Vibration    19          0.686              1.692              1.472
 Vibration    20          0.687              1.690              1.467
 Vibration    21          0.692              1.674              1.419
 Vibration    22          0.701              1.649              1.347
 Vibration    23          0.717              1.603              1.230
 Vibration    24          0.721              1.592              1.203
 Vibration    25          0.743              1.532              1.076
 Vibration    26          0.757              1.493              1.003
 Vibration    27          0.765              1.472              0.966
 Vibration    28          0.781              1.432              0.899
 Vibration    29          0.795              1.395              0.845
 Vibration    30          0.801              1.380              0.823
 Vibration    31          0.805              1.371              0.810
 Vibration    32          0.822              1.329              0.753
 Vibration    33          0.823              1.327              0.751
 Vibration    34          0.837              1.293              0.708
 Vibration    35          0.848              1.268              0.678
 Vibration    36          0.848              1.266              0.677
 Vibration    37          0.854              1.254              0.662
 Vibration    38          0.856              1.249              0.657
 Vibration    39          0.861              1.238              0.645
 Vibration    40          0.862              1.236              0.642
 Vibration    41          0.893              1.166              0.570
 Vibration    42          0.896              1.159              0.562
 Vibration    43          0.908              1.133              0.538
 Vibration    44          0.919              1.111              0.517
 Vibration    45          0.925              1.099              0.506
 Vibration    46          0.959              1.030              0.448
 Vibration    47          0.970              1.009              0.431

                           ! Non-Optimized Parameters !
 Normal termination of Gaussian 16 at Sat Jan 15 06:45:35 2022.
