 Gaussian 16, Revision A.03,
 Gaussian 16:  ES64L-G16RevA.03 25-Dec-2016

 ----------------------------------------------------------------------
 #p wb97xd def2svp scf=qc stable=opt scrf=(smd, solvent=2-propanol) nos
 ymm
 ----------------------------------------------------------------------

 ----------
 [No Title]
 ----------
 Symbolic Z-matrix:
 Charge =  2 Multiplicity = 3

                          Input orientation:
 ---------------------------------------------------------------------
 Center     Atomic      Atomic             Coordinates (Angstroms)
 Number     Number       Type             X           Y           Z
 ---------------------------------------------------------------------
      1         28           0        0.000000    0.000000    0.000000
 ---------------------------------------------------------------------

 SCF Done:  E(UwB97XD) =  -1507.77602464     a.u. after  149 cycles

 Alpha  occ. eigenvalues -- -300.29196 -36.17277 -31.58373 -31.58373 -31.58373
 Alpha  occ. eigenvalues --   -4.40092  -2.98534  -2.98534  -2.98534  -0.65200
 Alpha  occ. eigenvalues --   -0.65200  -0.61089  -0.61089  -0.61089
 Alpha virt. eigenvalues --   -0.05482   0.12582   0.17091   0.17091   0.17092
 Alpha virt. eigenvalues --    1.16853   1.16854   1.17466   1.17466   1.17467
 Alpha virt. eigenvalues --    5.34779   5.34779   5.34779   5.36919   5.36919

  Beta  occ. eigenvalues -- -300.29144 -36.12280 -31.54299 -31.54299 -31.54299
  Beta  occ. eigenvalues --   -4.29840  -2.87314  -2.87314  -2.87314  -0.56292
  Beta  occ. eigenvalues --   -0.56292  -0.56292
  Beta virt. eigenvalues --   -0.14587  -0.14587  -0.04140   0.13308   0.18355
  Beta virt. eigenvalues --    0.18355   0.18356   1.19417   1.19417   1.19418
  Beta virt. eigenvalues --    1.26459   1.26459   5.41254   5.43990   5.43991

 Mulliken charges and spin densities:
               1          2
     1  Ni   2.000000   2.000000
 Sum of Mulliken charges =   2.00000   2.00000

 Dipole moment (field-independent basis, Debye):
    X=             -0.0000    Y=             -0.0000    Z=              0.0000  Tot=              0.0000
 Quadrupole moment (field-independent basis, Debye-Ang):
   XX=             -6.9167   YY=             -6.9167   ZZ=             -6.9167
   XY=             -0.0000   XZ=             -0.0000   YZ=              0.0000

 Normal termination of Gaussian 16 at Wed Jan 19 00:17:58 2022.
