 Gaussian 16, Revision A.03,
 Gaussian 16:  ES64L-G16RevA.03 25-Dec-2016

 ----------------------------------------------------------------------
 #p wb97xd def2svp scf=qc stable=opt scrf=(smd, solvent=2-propanol) nos
 ymm
 ----------------------------------------------------------------------

 ----------
 [No Title]
 ----------
 Symbolic Z-matrix:
 Charge =  2 Multiplicity = 1

                          Input orientation:
 ---------------------------------------------------------------------
 Center     Atomic      Atomic             Coordinates (Angstroms)
 Number     Number       Type             X           Y           Z
 ---------------------------------------------------------------------
      1         28           0        0.000000    0.000000    0.000000
 ---------------------------------------------------------------------

 SCF Done:  E(RwB97XD) =  -1507.66566497     a.u. after   18 cycles
 SCF Done:  E(UwB97XD) =  -1507.74497994     a.u. after    6 cycles
 SCF Done:  E(UwB97XD) =  -1507.74498643     a.u. after   79 cycles

 Alpha  occ. eigenvalues -- -300.29739 -36.15327 -31.58358 -31.56159 -31.56159
 Alpha  occ. eigenvalues --   -4.35413  -2.97486  -2.91238  -2.91238  -0.62414
 Alpha  occ. eigenvalues --   -0.59535  -0.58694  -0.58694
 Alpha virt. eigenvalues --   -0.18121  -0.04913   0.12891   0.17076   0.17892
 Alpha virt. eigenvalues --    0.17892   1.17978   1.18138   1.18472   1.18472
 Alpha virt. eigenvalues --    1.24791   5.36833   5.38085   5.38085   5.40259

  Beta  occ. eigenvalues -- -300.29739 -36.15339 -31.57614 -31.57614 -31.55470
  Beta  occ. eigenvalues --   -4.35377  -2.95333  -2.95332  -2.89205  -0.62442
  Beta  occ. eigenvalues --   -0.59297  -0.59297  -0.58307
  Beta virt. eigenvalues --   -0.17996  -0.04880   0.12882   0.17340   0.17340
  Beta virt. eigenvalues --    0.18305   1.17942   1.18151   1.18151   1.18593
  Beta virt. eigenvalues --    1.24605   5.37519   5.37852   5.37853   5.40259

 Mulliken charges and spin densities:
               1          2
     1  Ni   2.000000  -0.000000
 Sum of Mulliken charges =   2.00000  -0.00000

 Dipole moment (field-independent basis, Debye):
    X=              0.0000    Y=             -0.0000    Z=              0.0000  Tot=              0.0000
 Quadrupole moment (field-independent basis, Debye-Ang):
   XX=             -6.9180   YY=             -6.9255   ZZ=             -6.9255
   XY=              0.0000   XZ=             -0.0000   YZ=             -0.0000

 Normal termination of Gaussian 16 at Wed Jan 19 00:16:12 2022.
