 Gaussian 16, Revision A.03,
 Gaussian 16:  ES64L-G16RevA.03 25-Dec-2016

 -------------------------------------------------------------------
 #p wb97xd def2svp scf=xqc stable=opt scrf=(smd, solvent=2-propanol)
 -------------------------------------------------------------------

 ----------
 [No Title]
 ----------
 Symbolic Z-matrix:
 Charge =  2 Multiplicity = 4

                         Standard orientation:
 ---------------------------------------------------------------------
 Center     Atomic      Atomic             Coordinates (Angstroms)
 Number     Number       Type             X           Y           Z
 ---------------------------------------------------------------------
      1         27           0        0.000000    0.000000    0.000000
 ---------------------------------------------------------------------

 SCF Done:  E(UwB97XD) =  -1382.35954261     A.U. after   18 cycles

 Unable to determine electronic state:  an orbital has unidentified symmetry.
 Alpha  occ. eigenvalues -- -277.84266 -33.11118 -28.73970 -28.73970 -28.73970
 Alpha  occ. eigenvalues --   -4.00223  -2.68134  -2.68134  -2.68134  -0.52047
 Alpha  occ. eigenvalues --   -0.52047  -0.52047  -0.48194  -0.48194
 Alpha virt. eigenvalues --   -0.00485   0.15510   0.21898   0.21898   0.21898
 Alpha virt. eigenvalues --    1.16818   1.16819   1.16819   1.17332   1.17333
 Alpha virt. eigenvalues --    4.75609   4.78075   4.78075   4.78075   4.80099

  Beta  occ. eigenvalues -- -277.84195 -33.04355 -28.68413 -28.68413 -28.68413
  Beta  occ. eigenvalues --   -3.85434  -2.52010  -2.52010  -2.52010  -0.41351
  Beta  occ. eigenvalues --   -0.41351
  Beta virt. eigenvalues --   -0.01120  -0.01120  -0.01120   0.00860   0.16646
  Beta virt. eigenvalues --    0.23951   0.23951   0.23951   1.20224   1.20224
  Beta virt. eigenvalues --    1.26894   1.26896   1.26896   4.88663   4.88663

 Mulliken charges and spin densities:
               1          2
     1  Co   2.000000   3.000000
 Sum of Mulliken charges =   2.00000   3.00000

 Dipole moment (field-independent basis, Debye):
    X=              0.0000    Y=              0.0000    Z=              0.0000  Tot=              0.0000
 Quadrupole moment (field-independent basis, Debye-Ang):
   XX=             -7.0378   YY=             -7.0378   ZZ=             -7.0378
   XY=              0.0000   XZ=             -0.0000   YZ=              0.0000

 Normal termination of Gaussian 16 at Thu Jan 13 20:53:15 2022.
